C:/Users/charl/WebstormProjects/aims/src/molecules/sdf/azithromycin.sdf
__Jmol-16.12022419243D 1   1.00000     0.00000     0
Jmol version 16.2.5  2024-04-16 21:43 EXTRACT: ({0:123})
124126  0  0  0  0            999 V2000
    0.0791   -0.7728    0.7429 C   0  0  1  0  0  0
    0.1725    0.4124   -0.3136 C   0  0  2  0  0  0
    0.1470   -0.3452    2.1417 O   0  0  0  0  0  0
   -1.2656   -1.6537    0.6446 C   0  0  2  0  0  0
    0.4252   -0.0082   -1.8247 C   0  0  2  0  0  0
    1.1638    1.5139    0.0892 C   0  0  0  0  0  0
   -2.5593   -0.9986    1.2543 C   0  0  2  0  0  0
   -1.0515   -2.9365    1.4696 C   0  0  0  0  0  0
   -1.5143   -2.1311   -0.6879 O   0  0  0  0  0  0
    1.8322   -0.2320   -2.1530 O   0  0  0  0  0  0
   -0.1083    1.1208   -2.7971 C   0  0  2  0  0  0
   -3.3944   -0.0182    0.3833 C   0  0  2  0  0  0
   -1.6315    1.1470   -2.8437 C   0  0  0  0  0  0
    0.3789    0.9855   -4.2440 C   0  0  0  0  0  0
   -3.7559    1.2853    1.1371 C   0  0  2  0  0  0
   -4.6923   -0.6991   -0.0814 C   0  0  0  0  0  0
   -2.1166    2.4353   -2.9647 O   0  0  0  0  0  0
   -2.3180    0.1286   -2.8053 O   0  0  0  0  0  0
   -3.1673    2.4768    0.4416 N   0  0  0  0  0  0
   -3.5615    2.6017   -2.9600 C   0  0  1  0  0  0
   -4.0954    3.6480    0.1490 C   0  0  1  0  0  0
   -1.9923    2.9143    1.2380 C   0  0  0  0  0  0
   -4.0043    4.0836   -2.5871 C   0  0  1  0  0  0
   -4.1865    2.0563   -4.2853 C   0  0  2  0  0  0
   -3.6764    4.5384   -1.0957 C   0  0  2  0  0  0
   -5.6013    3.3578    0.1069 C   0  0  0  0  0  0
   -3.3716    5.1443   -3.5163 C   0  0  0  0  0  0
   -5.4346    4.2050   -2.7597 O   0  0  0  0  0  0
   -3.5298    2.4579   -5.6015 C   0  0  0  0  0  0
   -2.3100    4.9689   -0.9805 O   0  0  0  0  0  0
    3.4874   -0.7323    4.7969 C   0  0  2  0  0  0
    3.6687   -0.8408    3.2831 C   0  0  2  0  0  0
    2.3679    0.2348    5.1623 C   0  0  1  0  0  0
    2.4162   -1.1457    2.6128 O   0  0  0  0  0  0
    1.0903   -0.0565    4.3490 C   0  0  2  0  0  0
    1.4103   -0.1221    2.8291 C   0  0  2  0  0  0
    0.1217    0.9577    4.6668 O   0  0  0  0  0  0
    4.6826   -1.9537    3.0323 C   0  0  0  0  0  0
    2.0739    0.3348    6.6396 N   0  0  0  0  0  0
    3.1195    1.0801    7.3627 C   0  0  0  0  0  0
    1.8558   -0.9662    7.3101 C   0  0  0  0  0  0
    0.9200   -1.4358    0.5732 H   0  0  0  0  0  0
   -0.0962   -0.9233   -2.0787 H   0  0  0  0  0  0
    2.7933   -3.8500   -1.0922 C   0  0  2  0  0  0
    4.2875   -3.7570   -1.5467 C   0  0  2  0  0  0
    1.9531   -2.7273   -1.7415 C   0  0  2  0  0  0
    4.8177   -2.3032   -1.7664 C   0  0  1  0  0  0
    2.5787   -1.3354   -1.5811 C   0  0  1  0  0  0
    3.8406   -1.3628   -2.2631 O   0  0  0  0  0  0
    4.4693   -4.4574   -2.7817 O   0  0  0  0  0  0
    5.5361   -1.6847   -0.5735 C   0  0  0  0  0  0
    2.7233   -3.7539    0.4426 C   0  0  0  0  0  0
    2.1611   -5.1012   -1.5398 O   0  0  0  0  0  0
    2.5346   -6.3473   -0.9289 C   0  0  0  0  0  0
   -0.8004    0.8914   -0.2861 H   0  0  0  0  0  0
    1.1767    2.3422   -0.6249 H   0  0  0  0  0  0
    2.1887    1.1378    0.1660 H   0  0  0  0  0  0
    0.8892    1.9702    1.0374 H   0  0  0  0  0  0
   -2.2917   -0.5308    2.2061 H   0  0  0  0  0  0
   -3.2403   -1.8030    1.5472 H   0  0  0  0  0  0
   -0.2584   -3.5469    1.0497 H   0  0  0  0  0  0
   -1.9344   -3.5811    1.4463 H   0  0  0  0  0  0
   -0.8151   -2.7284    2.5215 H   0  0  0  0  0  0
   -1.9144   -1.4297   -1.2343 H   0  0  0  0  0  0
    0.2287    2.0980   -2.4483 H   0  0  0  0  0  0
   -2.8386    0.2354   -0.5098 H   0  0  0  0  0  0
    0.0017    1.8085   -4.8577 H   0  0  0  0  0  0
    0.0342    0.0555   -4.7005 H   0  0  0  0  0  0
    1.4723    1.0157   -4.3072 H   0  0  0  0  0  0
   -3.4249    1.2451    2.1781 H   0  0  0  0  0  0
   -4.8377    1.3459    1.2305 H   0  0  0  0  0  0
   -5.2800   -0.0302   -0.7226 H   0  0  0  0  0  0
   -5.3245   -0.9731    0.7693 H   0  0  0  0  0  0
   -4.4878   -1.6074   -0.6510 H   0  0  0  0  0  0
   -3.9698    1.9639   -2.1744 H   0  0  0  0  0  0
   -3.9983    4.3115    1.0191 H   0  0  0  0  0  0
   -2.2936    3.3953    2.1774 H   0  0  0  0  0  0
   -1.3424    3.6031    0.6952 H   0  0  0  0  0  0
   -1.3607    2.0711    1.5139 H   0  0  0  0  0  0
   -5.2582    2.2801   -4.3365 H   0  0  0  0  0  0
   -4.1461    0.9625   -4.2572 H   0  0  0  0  0  0
   -4.2503    5.4667   -0.9594 H   0  0  0  0  0  0
   -5.8686    2.6583   -0.6934 H   0  0  0  0  0  0
   -6.1610    4.2852   -0.0491 H   0  0  0  0  0  0
   -5.9769    2.9625    1.0512 H   0  0  0  0  0  0
   -2.2802    5.1093   -3.5237 H   0  0  0  0  0  0
   -3.6750    6.1506   -3.2120 H   0  0  0  0  0  0
   -3.7256    5.0636   -4.5453 H   0  0  0  0  0  0
   -5.6325    4.2642   -3.7146 H   0  0  0  0  0  0
   -2.4618    2.2197   -5.6123 H   0  0  0  0  0  0
   -3.6477    3.5187   -5.8287 H   0  0  0  0  0  0
   -3.9943    1.9147   -6.4279 H   0  0  0  0  0  0
   -2.2102    5.3744   -0.0990 H   0  0  0  0  0  0
    4.4300   -0.4337    5.2646 H   0  0  0  0  0  0
    3.2397   -1.7295    5.1817 H   0  0  0  0  0  0
    4.0642    0.1004    2.8746 H   0  0  0  0  0  0
    2.6902    1.2374    4.8460 H   0  0  0  0  0  0
    0.6538   -1.0200    4.6472 H   0  0  0  0  0  0
    1.8125    0.8392    2.5114 H   0  0  0  0  0  0
    0.1484    1.0219    5.6458 H   0  0  0  0  0  0
    4.8452   -2.1243    1.9721 H   0  0  0  0  0  0
    4.3262   -2.9110    3.4307 H   0  0  0  0  0  0
    5.6499   -1.7274    3.4873 H   0  0  0  0  0  0
    4.0732    0.5467    7.3965 H   0  0  0  0  0  0
    2.8054    1.2784    8.3949 H   0  0  0  0  0  0
    3.2930    2.0597    6.9028 H   0  0  0  0  0  0
    1.4726   -0.8071    8.3203 H   0  0  0  0  0  0
    2.7767   -1.5564    7.3956 H   0  0  0  0  0  0
    1.1105   -1.5685    6.7906 H   0  0  0  0  0  0
    4.9317   -4.2833   -0.8351 H   0  0  0  0  0  0
    0.9329   -2.7571   -1.3468 H   0  0  0  0  0  0
    1.8297   -2.9380   -2.8117 H   0  0  0  0  0  0
    5.5744   -2.3585   -2.5584 H   0  0  0  0  0  0
    2.7567   -1.0865   -0.5316 H   0  0  0  0  0  0
    3.9841   -5.2987   -2.7023 H   0  0  0  0  0  0
    4.8367   -1.2646    0.1437 H   0  0  0  0  0  0
    6.1391   -0.8320   -0.9121 H   0  0  0  0  0  0
    6.2066   -2.3920   -0.0808 H   0  0  0  0  0  0
    3.3300   -4.5169    0.9345 H   0  0  0  0  0  0
    1.7101   -3.9033    0.8044 H   0  0  0  0  0  0
    3.0759   -2.7897    0.8063 H   0  0  0  0  0  0
    2.3801   -6.3388    0.1536 H   0  0  0  0  0  0
    3.5676   -6.6119   -1.1654 H   0  0  0  0  0  0
    1.8874   -7.1266   -1.3448 H   0  0  0  0  0  0
  1  2  1
  1  3  1
  1  4  1
  1 42  1
  2  5  1
  2  6  1
 36  3  1
  4  7  1
  4  8  1
  4  9  1
  5 10  1
  5 11  1
  5 43  1
  7 12  1
 48 10  1
 11 13  1
 11 14  1
 12 15  1
 12 16  1
 13 17  1
 13 18  2
 15 19  1
 17 20  1
 19 21  1
 19 22  1
 20 23  1
 20 24  1
 21 25  1
 21 26  1
 23 27  1
 23 28  1
 23 25  1
 24 29  1
 25 30  1
 31 32  1
 31 33  1
 32 34  1
 32 38  1
 33 35  1
 33 39  1
 34 36  1
 35 36  1
 35 37  1
 39 40  1
 39 41  1
 44 45  1
 44 46  1
 44 52  1
 44 53  1
 45 47  1
 45 50  1
 46 48  1
 47 49  1
 47 51  1
 48 49  1
 53 54  1
 55  2  1
 56  6  1
 57  6  1
 58  6  1
 59  7  1
 60  7  1
 61  8  1
 62  8  1
 63  8  1
 64  9  1
 65 11  1
 66 12  1
 67 14  1
 68 14  1
 69 14  1
 70 15  1
 71 15  1
 72 16  1
 73 16  1
 74 16  1
 75 20  1
 76 21  1
 77 22  1
 78 22  1
 79 22  1
 80 24  1
 81 24  1
 82 25  1
 83 26  1
 84 26  1
 85 26  1
 86 27  1
 87 27  1
 88 27  1
 89 28  1
 90 29  1
 91 29  1
 92 29  1
 93 30  1
 94 31  1
 95 31  1
 96 32  1
 97 33  1
 98 35  1
 99 36  1
100 37  1
101 38  1
102 38  1
103 38  1
104 40  1
105 40  1
106 40  1
107 41  1
108 41  1
109 41  1
110 45  1
111 46  1
112 46  1
113 47  1
114 48  1
115 50  1
116 51  1
117 51  1
118 51  1
119 52  1
120 52  1
121 52  1
122 54  1
123 54  1
124 54  1
M  END
> <PUBCHEM_COMPOUND_CID>
447043


> <PUBCHEM_COMPOUND_CANONICALIZED>
1


> <PUBCHEM_CACTVS_COMPLEXITY>
1150


> <PUBCHEM_CACTVS_HBOND_ACCEPTOR>
14


> <PUBCHEM_CACTVS_HBOND_DONOR>
5


> <PUBCHEM_CACTVS_ROTATABLE_BOND>
7


> <PUBCHEM_CACTVS_SUBSKEYS>
AAADcfB/PAAAAAAAAAAAAAAAAAAAAAAAAAAkSAAAAAAAAAAAAAAAHgAACAAADXzxgAcCCAMABgAIAACQ+
CAAAAAAAAAAAAAEIAAATEBYAgAAmQAAHIACXAAH4/P7OAAAAAAAAAAAAAAAAAAAAAAAAAAAAAA==


> <PUBCHEM_IUPAC_OPENEYE_NAME>
(2R,3S,4R,5R,8R,10R,11R,12S,13S,14R)-11-[(2S,3R,4S,6R)-4-(dimethylamino)-3-hydro+
xy-6-methyl-tetrahydropyran-2-yl]oxy-2-ethyl-3,4,10-trihydroxy-13-[(2R,4R,5S,6S)+
-5-hydroxy-4-methoxy-4,6-dimethyl-tetrahydropyran-2-yl]oxy-3,5,6,8,10,12,14-hept+
amethyl-1-oxa-6-azacyclopentadecan-15-one


> <PUBCHEM_IUPAC_CAS_NAME>
(2R,3S,4R,5R,8R,10R,11R,12S,13S,14R)-11-[[(2S,3R,4S,6R)-4-(dimethylamino)-3-hydr+
oxy-6-methyl-2-oxanyl]oxy]-2-ethyl-3,4,10-trihydroxy-13-[[(2R,4R,5S,6S)-5-hydrox+
y-4-methoxy-4,6-dimethyl-2-oxanyl]oxy]-3,5,6,8,10,12,14-heptamethyl-1-oxa-6-azac+
yclopentadecan-15-one


> <PUBCHEM_IUPAC_NAME_MARKUP>
(2<I>R</I>,3<I>S</I>,4<I>R</I>,5<I>R</I>,8<I>R</I>,10<I>R</I>,11<I>R</I>,12<I>S<+
/I>,13<I>S</I>,14<I>R</I>)-11-[(2<I>S</I>,3<I>R</I>,4<I>S</I>,6<I>R</I>)-4-(dime+
thylamino)-3-hydroxy-6-methyloxan-2-yl]oxy-2-ethyl-3,4,10-trihydroxy-13-[(2<I>R<+
/I>,4<I>R</I>,5<I>S</I>,6<I>S</I>)-5-hydroxy-4-methoxy-4,6-dimethyloxan-2-yl]oxy+
-3,5,6,8,10,12,14-heptamethyl-1-oxa-6-azacyclopentadecan-15-one


> <PUBCHEM_IUPAC_NAME>
(2R,3S,4R,5R,8R,10R,11R,12S,13S,14R)-11-[(2S,3R,4S,6R)-4-(dimethylamino)-3-hydro+
xy-6-methyloxan-2-yl]oxy-2-ethyl-3,4,10-trihydroxy-13-[(2R,4R,5S,6S)-5-hydroxy-4+
-methoxy-4,6-dimethyloxan-2-yl]oxy-3,5,6,8,10,12,14-heptamethyl-1-oxa-6-azacyclo+
pentadecan-15-one


> <PUBCHEM_IUPAC_SYSTEMATIC_NAME>
(2R,3S,4R,5R,8R,10R,11R,12S,13S,14R)-11-[(2S,3R,4S,6R)-4-(dimethylamino)-6-methy+
l-3-oxidanyl-oxan-2-yl]oxy-2-ethyl-13-[(2R,4R,5S,6S)-4-methoxy-4,6-dimethyl-5-ox+
idanyl-oxan-2-yl]oxy-3,5,6,8,10,12,14-heptamethyl-3,4,10-tris(oxidanyl)-1-oxa-6-+
azacyclopentadecan-15-one


> <PUBCHEM_IUPAC_TRADITIONAL_NAME>
(2R,3S,4R,5R,8R,10R,11R,12S,13S,14R)-11-[(2S,3R,4S,6R)-4-(dimethylamino)-3-hydro+
xy-6-methyl-tetrahydropyran-2-yl]oxy-2-ethyl-3,4,10-trihydroxy-13-[(2R,4R,5S,6S)+
-5-hydroxy-4-methoxy-4,6-dimethyl-tetrahydropyran-2-yl]oxy-3,5,6,8,10,12,14-hept+
amethyl-1-oxa-6-azacyclopentadecan-15-one


> <PUBCHEM_IUPAC_INCHI>
InChI=1S/C38H72N2O12/c1-15-27-38(10,46)31(42)24(6)40(13)19-20(2)17-36(8,45)33(52+
-35-29(41)26(39(11)12)16-21(3)48-35)22(4)30(23(5)34(44)50-27)51-28-18-37(9,47-14+
)32(43)25(7)49-28/h20-33,35,41-43,45-46H,15-19H2,1-14H3/t20-,21-,22+,23-,24-,25++
,26+,27-,28+,29-,30+,31-,32+,33-,35+,36-,37-,38-/m1/s1


> <PUBCHEM_IUPAC_INCHIKEY>
MQTOSJVFKKJCRP-BICOPXKESA-N


> <PUBCHEM_XLOGP3>
4


> <PUBCHEM_EXACT_MASS>
748.50852574


> <PUBCHEM_MOLECULAR_FORMULA>
C38H72N2O12


> <PUBCHEM_MOLECULAR_WEIGHT>
749.0


> <PUBCHEM_OPENEYE_CAN_SMILES>
CCC1C(C(C(N(CC(CC(C(C(C(C(C(=O)O1)C)OC2CC(C(C(O2)C)O)(C)OC)C)OC3C(C(CC(O3)C)N(C)+
C)O)(C)O)C)C)C)O)(C)O


> <PUBCHEM_OPENEYE_ISO_SMILES>
CC[C@@H]1[C@@]([C@@H]([C@H](N(C[C@@H](C[C@@]([C@@H]([C@H]([C@@H]([C@H](C(=O)O1)C+
)O[C@H]2C[C@@]([C@H]([C@@H](O2)C)O)(C)OC)C)O[C@H]3[C@@H]([C@H](C[C@H](O3)C)N(C)C+
)O)(C)O)C)C)C)O)(C)O


> <PUBCHEM_CACTVS_TPSA>
180


> <PUBCHEM_MONOISOTOPIC_WEIGHT>
748.50852574


> <PUBCHEM_TOTAL_CHARGE>
0


> <PUBCHEM_HEAVY_ATOM_COUNT>
52


> <PUBCHEM_ATOM_DEF_STEREO_COUNT>
18


> <PUBCHEM_ATOM_UDEF_STEREO_COUNT>
0


> <PUBCHEM_BOND_DEF_STEREO_COUNT>
0


> <PUBCHEM_BOND_UDEF_STEREO_COUNT>
0


> <PUBCHEM_ISOTOPIC_ATOM_COUNT>
0


> <PUBCHEM_COMPONENT_COUNT>
1


> <PUBCHEM_CACTVS_TAUTO_COUNT>
2


> <PUBCHEM_COORDINATE_TYPE>
1
5
255


> <PUBCHEM_BONDANNOTATIONS>
15  1  6
22  1  5
33  10  5
35  11  6
29  14  5
16  23  5
18  2  6
24  2  5
20  39  6
21  41  5
17  3  5
32  43  5
36  47  6
37  48  5
38  45  6
26  7  5
27  8  6
31  9  5


> <JMOL_ATOM_NAMES>
124
1 C1
2 C2
3 O3
4 C4
5 C5
6 C6
7 C7
8 C8
9 O9
10 O10
11 C11
12 C12
13 C13
14 C14
15 C15
16 C16
17 O17
18 O18
19 N19
20 C20
21 C21
22 C22
23 C23
24 C24
25 C25
26 C26
27 C27
28 O28
29 C29
30 O30
31 C31
32 C32
33 C33
34 O34
35 C35
36 C36
37 O37
38 C38
39 N39
40 C40
41 C41
42 H42
43 H43
44 C44
45 C45
46 C46
47 C47
48 C48
49 O49
50 O50
51 C51
52 C52
53 O53
54 C54
55 H55
56 H56
57 H57
58 H58
59 H59
60 H60
61 H61
62 H62
63 H63
64 H64
65 H65
66 H66
67 H67
68 H68
69 H69
70 H70
71 H71
72 H72
73 H73
74 H74
75 H75
76 H76
77 H77
78 H78
79 H79
80 H80
81 H81
82 H82
83 H83
84 H84
85 H85
86 H86
87 H87
88 H88
89 H89
90 H90
91 H91
92 H92
93 H93
94 H94
95 H95
96 H96
97 H97
98 H98
99 H99
100 H100
101 H101
102 H102
103 H103
104 H104
105 H105
106 H106
107 H107
108 H108
109 H109
110 H110
111 H111
112 H112
113 H113
114 H114
115 H115
116 H116
117 H117
118 H118
119 H119
120 H120
121 H121
122 H122
123 H123
124 H124


$$$$
