10034073
  -OEChem-07162413522D

146149  0  0  1  0            999 V2000
   -0.3976   11.7968   -3.1090 Cl  0  0  0  0  0  0  0  0  0  0  0  0
    0.1935    7.6640   -6.4260 Cl  0  0  0  0  0  0  0  0  0  0  0  0
    1.8313   -5.8736   -0.1915 O   0  0  0  0  0  0  0  0  0  0  0  0
    0.6169   -3.8276   -0.0959 O   0  0  0  0  0  0  0  0  0  0  0  0
    3.7324   -8.0342    1.9963 O   0  0  0  0  0  0  0  0  0  0  0  0
    2.0561   -6.4486    3.9269 O   0  0  0  0  0  0  0  0  0  0  0  0
   -0.0139   -5.7560    2.0871 O   0  0  0  0  0  0  0  0  0  0  0  0
   -3.6129    5.8303    2.3863 O   0  0  0  0  0  0  0  0  0  0  0  0
   -1.7238    6.8957   -0.6195 O   0  0  0  0  0  0  0  0  0  0  0  0
   -0.2667    4.3159    2.5698 O   0  0  0  0  0  0  0  0  0  0  0  0
   -2.8447    3.5724    2.9292 O   0  0  0  0  0  0  0  0  0  0  0  0
    3.2447   -9.0126    3.8506 O   0  0  0  0  0  0  0  0  0  0  0  0
    0.3574    6.6535    1.2269 O   0  0  0  0  0  0  0  0  0  0  0  0
    1.6898    1.4846    0.0141 O   0  0  0  0  0  0  0  0  0  0  0  0
   -4.9857    0.8989    0.2594 O   0  0  0  0  0  0  0  0  0  0  0  0
   -0.0292    5.8856   -1.4373 O   0  0  0  0  0  0  0  0  0  0  0  0
   -7.9082   -0.1829    0.3435 O   0  0  0  0  0  0  0  0  0  0  0  0
   -5.5575    0.7033    2.3641 O   0  0  0  0  0  0  0  0  0  0  0  0
   -0.3948    6.0918   -4.0721 O   0  0  0  0  0  0  0  0  0  0  0  0
    0.0744   10.4270   -5.5387 O   0  0  0  0  0  0  0  0  0  0  0  0
    2.8979   -6.7776    0.1808 C   0  0  1  0  0  0  0  0  0  0  0  0
    2.6909   -7.2411    1.6687 C   0  0  2  0  0  0  0  0  0  0  0  0
    2.3894   -6.0271    2.6065 C   0  0  1  0  0  0  0  0  0  0  0  0
    1.2545   -5.1074    2.0457 C   0  0  1  0  0  0  0  0  0  0  0  0
    1.5773   -4.6865    0.5895 C   0  0  1  0  0  0  0  0  0  0  0  0
    2.7129   -7.9649   -0.8122 C   0  0  0  0  0  0  0  0  0  0  0  0
    4.2902   -6.1235   -0.0997 C   0  0  0  0  0  0  0  0  0  0  0  0
    0.9007   -3.3607   -1.4570 C   0  0  2  0  0  0  0  0  0  0  0  0
    2.2048   -2.4709   -1.5475 C   0  0  1  0  0  0  0  0  0  0  0  0
   -0.2806   -2.8165   -2.1989 C   0  0  0  0  0  0  0  0  0  0  0  0
    2.8597   -2.2045   -2.9438 C   0  0  0  0  0  0  0  0  0  0  0  0
    3.9912   -8.8588    2.8922 C   0  0  0  0  0  0  0  0  0  0  0  0
    2.0233   -1.2288   -0.7916 C   0  0  0  0  0  0  0  0  0  0  0  0
   -1.9621    6.2011    0.5096 C   0  0  1  0  0  0  0  0  0  0  0  0
   -0.9815    6.5081    1.6805 C   0  0  1  0  0  0  0  0  0  0  0  0
   -1.1178    5.4560    2.8233 C   0  0  1  0  0  0  0  0  0  0  0  0
    5.1754   -9.7061    2.7678 C   0  0  1  0  0  0  0  0  0  0  0  0
   -3.3935    6.4312    1.0845 C   0  0  1  0  0  0  0  0  0  0  0  0
   -2.6089    4.9998    3.0280 C   0  0  1  0  0  0  0  0  0  0  0  0
   -0.3242   -3.1232   -3.6335 C   0  0  0  0  0  0  0  0  0  0  0  0
   -1.2615   -2.0623   -1.6194 C   0  0  0  0  0  0  0  0  0  0  0  0
    2.5916   -0.7831    0.3541 C   0  0  0  0  0  0  0  0  0  0  0  0
    3.4270   -3.4310   -3.7067 C   0  0  0  0  0  0  0  0  0  0  0  0
   -4.5569    6.1033    0.1189 C   0  0  0  0  0  0  0  0  0  0  0  0
    5.0959  -10.6298    1.5214 C   0  0  0  0  0  0  0  0  0  0  0  0
    6.5011   -8.9010    2.8024 C   0  0  0  0  0  0  0  0  0  0  0  0
    2.1706    0.5057    0.9404 C   0  0  2  0  0  0  0  0  0  0  0  0
   -2.3733   -1.3611   -2.1156 C   0  0  0  0  0  0  0  0  0  0  0  0
    3.6211   -1.5008    1.1158 C   0  0  0  0  0  0  0  0  0  0  0  0
    1.1757    0.3588    2.1282 C   0  0  0  0  0  0  0  0  0  0  0  0
   -3.4622    3.0188    1.7535 C   0  0  0  0  0  0  0  0  0  0  0  0
   -3.4275   -1.0299   -1.3161 C   0  0  0  0  0  0  0  0  0  0  0  0
   -0.8152    6.8283   -1.4734 C   0  0  0  0  0  0  0  0  0  0  0  0
   -2.3985   -0.9071   -3.5146 C   0  0  0  0  0  0  0  0  0  0  0  0
    1.1149    4.3363    2.9807 C   0  0  0  0  0  0  0  0  0  0  0  0
   -4.6189   -0.2444   -1.6770 C   0  0  0  0  0  0  0  0  0  0  0  0
   -5.6937    0.2136   -0.6386 C   0  0  1  0  0  0  0  0  0  0  0  0
   -3.5725    1.5600    1.7184 C   0  0  0  0  0  0  0  0  0  0  0  0
   -0.2136    0.0820    1.8102 C   0  0  0  0  0  0  0  0  0  0  0  0
   -0.6521    7.7902   -2.4769 C   0  0  0  0  0  0  0  0  0  0  0  0
   -6.7730   -0.8354   -0.2267 C   0  0  1  0  0  0  0  0  0  0  0  0
   -2.5339    0.6941    1.7855 C   0  0  0  0  0  0  0  0  0  0  0  0
   -4.7959    1.0319    1.4674 C   0  0  0  0  0  0  0  0  0  0  0  0
   -1.2152    0.9703    1.9463 C   0  0  0  0  0  0  0  0  0  0  0  0
   -0.6921    9.2010   -2.2214 C   0  0  0  0  0  0  0  0  0  0  0  0
   -0.3974    7.3299   -3.8022 C   0  0  0  0  0  0  0  0  0  0  0  0
   -6.3643   -1.9943    0.7095 C   0  0  0  0  0  0  0  0  0  0  0  0
   -0.9287    9.7645   -0.8469 C   0  0  0  0  0  0  0  0  0  0  0  0
   -0.4344   10.1002   -3.2985 C   0  0  0  0  0  0  0  0  0  0  0  0
   -0.1432    8.2326   -4.8555 C   0  0  0  0  0  0  0  0  0  0  0  0
   -0.1615    9.6170   -4.5984 C   0  0  0  0  0  0  0  0  0  0  0  0
    0.3557    9.8327    0.0078 C   0  0  0  0  0  0  0  0  0  0  0  0
    1.7904   -7.8651    1.6977 H   0  0  0  0  0  0  0  0  0  0  0  0
    3.3046   -5.4387    2.7165 H   0  0  0  0  0  0  0  0  0  0  0  0
    1.1738   -4.2098    2.6661 H   0  0  0  0  0  0  0  0  0  0  0  0
    2.4898   -4.1128    0.7063 H   0  0  0  0  0  0  0  0  0  0  0  0
    1.7407   -8.4454   -0.6831 H   0  0  0  0  0  0  0  0  0  0  0  0
    2.7739   -7.6312   -1.8508 H   0  0  0  0  0  0  0  0  0  0  0  0
    3.4775   -8.7294   -0.6685 H   0  0  0  0  0  0  0  0  0  0  0  0
    4.5167   -5.3125    0.5919 H   0  0  0  0  0  0  0  0  0  0  0  0
    4.3276   -5.7079   -1.1086 H   0  0  0  0  0  0  0  0  0  0  0  0
    5.1011   -6.8490   -0.0089 H   0  0  0  0  0  0  0  0  0  0  0  0
    1.1596   -4.2985   -1.9553 H   0  0  0  0  0  0  0  0  0  0  0  0
    3.0016   -3.0592   -1.1081 H   0  0  0  0  0  0  0  0  0  0  0  0
    1.9837   -5.6237    4.4526 H   0  0  0  0  0  0  0  0  0  0  0  0
   -0.1761   -5.9357    3.0377 H   0  0  0  0  0  0  0  0  0  0  0  0
    3.7202   -1.5400   -2.8067 H   0  0  0  0  0  0  0  0  0  0  0  0
    2.1698   -1.6658   -3.5939 H   0  0  0  0  0  0  0  0  0  0  0  0
    1.3496   -0.6367   -1.2201 H   0  0  0  0  0  0  0  0  0  0  0  0
   -1.8743    5.1475    0.2412 H   0  0  0  0  0  0  0  0  0  0  0  0
   -1.2126    7.4991    2.0859 H   0  0  0  0  0  0  0  0  0  0  0  0
   -0.7877    5.9405    3.7504 H   0  0  0  0  0  0  0  0  0  0  0  0
   -3.4946    7.5056    1.2711 H   0  0  0  0  0  0  0  0  0  0  0  0
    5.2234  -10.3852    3.6275 H   0  0  0  0  0  0  0  0  0  0  0  0
   -2.8329    5.1518    4.0867 H   0  0  0  0  0  0  0  0  0  0  0  0
   -1.2778   -3.5780   -3.9004 H   0  0  0  0  0  0  0  0  0  0  0  0
   -0.1359   -2.2321   -4.2323 H   0  0  0  0  0  0  0  0  0  0  0  0
    0.4034   -3.8480   -3.9887 H   0  0  0  0  0  0  0  0  0  0  0  0
   -1.1478   -1.9829   -0.6349 H   0  0  0  0  0  0  0  0  0  0  0  0
    4.1991   -3.9343   -3.1220 H   0  0  0  0  0  0  0  0  0  0  0  0
    2.6628   -4.1679   -3.9434 H   0  0  0  0  0  0  0  0  0  0  0  0
    3.8771   -3.1126   -4.6492 H   0  0  0  0  0  0  0  0  0  0  0  0
   -4.4559    6.6601   -0.8144 H   0  0  0  0  0  0  0  0  0  0  0  0
   -4.5912    5.0438   -0.1286 H   0  0  0  0  0  0  0  0  0  0  0  0
   -5.5118    6.3817    0.5704 H   0  0  0  0  0  0  0  0  0  0  0  0
    4.1782  -11.2227    1.5299 H   0  0  0  0  0  0  0  0  0  0  0  0
    5.1246  -10.0540    0.5949 H   0  0  0  0  0  0  0  0  0  0  0  0
    5.9344  -11.3295    1.4993 H   0  0  0  0  0  0  0  0  0  0  0  0
    6.5830   -8.3283    3.7285 H   0  0  0  0  0  0  0  0  0  0  0  0
    6.5731   -8.2096    1.9604 H   0  0  0  0  0  0  0  0  0  0  0  0
    7.3619   -9.5730    2.7584 H   0  0  0  0  0  0  0  0  0  0  0  0
    3.0553    1.0168    1.3349 H   0  0  0  0  0  0  0  0  0  0  0  0
    0.8632    6.9607    2.0080 H   0  0  0  0  0  0  0  0  0  0  0  0
    3.2095   -1.8644    2.0588 H   0  0  0  0  0  0  0  0  0  0  0  0
    4.4641   -0.8479    1.3493 H   0  0  0  0  0  0  0  0  0  0  0  0
    4.0811   -2.3548    0.6291 H   0  0  0  0  0  0  0  0  0  0  0  0
    1.2427    1.2524    2.7452 H   0  0  0  0  0  0  0  0  0  0  0  0
    1.5023   -0.4256    2.8129 H   0  0  0  0  0  0  0  0  0  0  0  0
   -2.8919    3.2815    0.8647 H   0  0  0  0  0  0  0  0  0  0  0  0
   -4.4448    3.4931    1.6646 H   0  0  0  0  0  0  0  0  0  0  0  0
   -3.4130   -1.3388   -0.3731 H   0  0  0  0  0  0  0  0  0  0  0  0
    1.2003    4.3540    4.0672 H   0  0  0  0  0  0  0  0  0  0  0  0
    1.6988    5.1574    2.5730 H   0  0  0  0  0  0  0  0  0  0  0  0
    1.5987    3.4396    2.6101 H   0  0  0  0  0  0  0  0  0  0  0  0
   -1.4757   -0.3780   -3.7553 H   0  0  0  0  0  0  0  0  0  0  0  0
   -2.5606   -1.7423   -4.1921 H   0  0  0  0  0  0  0  0  0  0  0  0
   -3.1761   -0.2108   -3.8203 H   0  0  0  0  0  0  0  0  0  0  0  0
   -5.1368   -0.7551   -2.4920 H   0  0  0  0  0  0  0  0  0  0  0  0
   -4.2316    0.6973   -2.0835 H   0  0  0  0  0  0  0  0  0  0  0  0
   -6.2697    0.9925   -1.1545 H   0  0  0  0  0  0  0  0  0  0  0  0
    2.4203    1.6140   -0.6290 H   0  0  0  0  0  0  0  0  0  0  0  0
   -0.4172   -0.8445    1.5094 H   0  0  0  0  0  0  0  0  0  0  0  0
   -7.1453   -1.2983   -1.1456 H   0  0  0  0  0  0  0  0  0  0  0  0
   -2.7376   -0.2807    1.7035 H   0  0  0  0  0  0  0  0  0  0  0  0
   -0.9671    1.8931    2.2001 H   0  0  0  0  0  0  0  0  0  0  0  0
   -7.1736   -2.7258    0.7607 H   0  0  0  0  0  0  0  0  0  0  0  0
   -5.4757   -2.5057    0.3427 H   0  0  0  0  0  0  0  0  0  0  0  0
   -6.1785   -1.6549    1.7269 H   0  0  0  0  0  0  0  0  0  0  0  0
   -1.7056    9.2337   -0.3025 H   0  0  0  0  0  0  0  0  0  0  0  0
   -1.3614   10.7649   -0.8639 H   0  0  0  0  0  0  0  0  0  0  0  0
   -8.2625    0.3919   -0.3694 H   0  0  0  0  0  0  0  0  0  0  0  0
    0.1189   10.1711    1.0186 H   0  0  0  0  0  0  0  0  0  0  0  0
    1.0725   10.5305   -0.4278 H   0  0  0  0  0  0  0  0  0  0  0  0
    0.8408    8.8609    0.0787 H   0  0  0  0  0  0  0  0  0  0  0  0
   -0.2298    5.7856   -4.8803 H   0  0  0  0  0  0  0  0  0  0  0  0
    0.2539   10.1523   -6.3545 H   0  0  0  0  0  0  0  0  0  0  0  0
  1 69  1  0  0  0  0
  2 70  1  0  0  0  0
  3 21  1  0  0  0  0
  3 25  1  0  0  0  0
 25  4  1  0  0  0  0
 28  4  1  0  0  0  0
 22  5  1  0  0  0  0
  5 32  1  0  0  0  0
 23  6  1  0  0  0  0
  6 85  1  0  0  0  0
 24  7  1  0  0  0  0
  7 86  1  0  0  0  0
  8 38  1  0  0  0  0
  8 39  1  0  0  0  0
 34  9  1  0  0  0  0
  9 53  1  0  0  0  0
 36 10  1  0  0  0  0
 10 55  1  0  0  0  0
 39 11  1  0  0  0  0
 11 51  1  0  0  0  0
 12 32  2  0  0  0  0
 35 13  1  0  0  0  0
 13113  1  0  0  0  0
 47 14  1  0  0  0  0
 14131  1  0  0  0  0
 15 57  1  0  0  0  0
 15 63  1  0  0  0  0
 16 53  2  0  0  0  0
 61 17  1  0  0  0  0
 17141  1  0  0  0  0
 18 63  2  0  0  0  0
 19 66  1  0  0  0  0
 19145  1  0  0  0  0
 20 71  1  0  0  0  0
 20146  1  0  0  0  0
 21 22  1  0  0  0  0
 21 26  1  0  0  0  0
 21 27  1  0  0  0  0
 22 23  1  0  0  0  0
 22 73  1  0  0  0  0
 23 24  1  0  0  0  0
 23 74  1  0  0  0  0
 24 25  1  0  0  0  0
 24 75  1  0  0  0  0
 25 76  1  0  0  0  0
 26 77  1  0  0  0  0
 26 78  1  0  0  0  0
 26 79  1  0  0  0  0
 27 80  1  0  0  0  0
 27 81  1  0  0  0  0
 27 82  1  0  0  0  0
 28 29  1  0  0  0  0
 28 30  1  0  0  0  0
 28 83  1  0  0  0  0
 29 31  1  0  0  0  0
 29 33  1  0  0  0  0
 29 84  1  0  0  0  0
 30 40  1  0  0  0  0
 30 41  2  0  0  0  0
 31 43  1  0  0  0  0
 31 87  1  0  0  0  0
 31 88  1  0  0  0  0
 32 37  1  0  0  0  0
 33 42  2  0  0  0  0
 33 89  1  0  0  0  0
 34 35  1  0  0  0  0
 34 38  1  0  0  0  0
 34 90  1  0  0  0  0
 35 36  1  0  0  0  0
 35 91  1  0  0  0  0
 36 39  1  0  0  0  0
 36 92  1  0  0  0  0
 37 45  1  0  0  0  0
 37 46  1  0  0  0  0
 37 94  1  0  0  0  0
 38 44  1  0  0  0  0
 38 93  1  0  0  0  0
 39 95  1  0  0  0  0
 40 96  1  0  0  0  0
 40 97  1  0  0  0  0
 40 98  1  0  0  0  0
 41 48  1  0  0  0  0
 41 99  1  0  0  0  0
 42 47  1  0  0  0  0
 42 49  1  0  0  0  0
 43100  1  0  0  0  0
 43101  1  0  0  0  0
 43102  1  0  0  0  0
 44103  1  0  0  0  0
 44104  1  0  0  0  0
 44105  1  0  0  0  0
 45106  1  0  0  0  0
 45107  1  0  0  0  0
 45108  1  0  0  0  0
 46109  1  0  0  0  0
 46110  1  0  0  0  0
 46111  1  0  0  0  0
 47 50  1  0  0  0  0
 47112  1  0  0  0  0
 48 52  2  0  0  0  0
 48 54  1  0  0  0  0
 49114  1  0  0  0  0
 49115  1  0  0  0  0
 49116  1  0  0  0  0
 50 59  1  0  0  0  0
 50117  1  0  0  0  0
 50118  1  0  0  0  0
 51 58  1  0  0  0  0
 51119  1  0  0  0  0
 51120  1  0  0  0  0
 52 56  1  0  0  0  0
 52121  1  0  0  0  0
 53 60  1  0  0  0  0
 54125  1  0  0  0  0
 54126  1  0  0  0  0
 54127  1  0  0  0  0
 55122  1  0  0  0  0
 55123  1  0  0  0  0
 55124  1  0  0  0  0
 56 57  1  0  0  0  0
 56128  1  0  0  0  0
 56129  1  0  0  0  0
 57 61  1  0  0  0  0
 57130  1  0  0  0  0
 58 62  2  0  0  0  0
 58 63  1  0  0  0  0
 59 64  2  0  0  0  0
 59132  1  0  0  0  0
 60 65  2  0  0  0  0
 60 66  1  0  0  0  0
 61 67  1  0  0  0  0
 61133  1  0  0  0  0
 62 64  1  0  0  0  0
 62134  1  0  0  0  0
 64135  1  0  0  0  0
 65 68  1  0  0  0  0
 65 69  1  0  0  0  0
 66 70  2  0  0  0  0
 67136  1  0  0  0  0
 67137  1  0  0  0  0
 67138  1  0  0  0  0
 68 72  1  0  0  0  0
 68139  1  0  0  0  0
 68140  1  0  0  0  0
 69 71  2  0  0  0  0
 70 71  1  0  0  0  0
 72142  1  0  0  0  0
 72143  1  0  0  0  0
 72144  1  0  0  0  0
M  END
> <PUBCHEM_COMPOUND_CID>
10034073

> <PUBCHEM_COMPOUND_CANONICALIZED>
1

> <PUBCHEM_CACTVS_COMPLEXITY>
1970

> <PUBCHEM_CACTVS_HBOND_ACCEPTOR>
18

> <PUBCHEM_CACTVS_HBOND_DONOR>
7

> <PUBCHEM_CACTVS_ROTATABLE_BOND>
15

> <PUBCHEM_CACTVS_SUBSKEYS>
AAADcfB8PgAGAAAAAAAAAAAAAAAAAAAAAAA0SIAAAAAAAAABAAAAGgIACAAADVawmCMCDoAABgCIAiDSCAACAAAkJEAIiAEEC8gZNzaDNxqicUAl4BUPuYfI7LzOpCABKACZCABIQAJQATIQAAAAAAAAAA==

> <PUBCHEM_IUPAC_OPENEYE_NAME>
[(2R,3S,4S,5S,6R)-6-[[(3E,5E,8S,9E,11S,12R,13E,15E,18S)-12-[(2R,3S,4R,5S)-3,4-dihydroxy-6,6-dimethyl-5-(2-methylpropanoyloxy)tetrahydropyran-2-yl]oxy-11-ethyl-8-hydroxy-18-[(1R)-1-hydroxyethyl]-9,13,15-trimethyl-2-oxo-1-oxacyclooctadeca-3,5,9,13,15-pentaen-3-yl]methoxy]-4-hydroxy-5-methoxy-2-methyl-tetrahydropyran-3-yl] 3,5-dichloro-2-ethyl-4,6-dihydroxy-benzoate

> <PUBCHEM_IUPAC_CAS_NAME>
3,5-dichloro-2-ethyl-4,6-dihydroxybenzoic acid [(2R,3S,4S,5S,6R)-6-[[(3E,5E,8S,9E,11S,12R,13E,15E,18S)-12-[[(2R,3S,4R,5S)-3,4-dihydroxy-6,6-dimethyl-5-(2-methyl-1-oxopropoxy)-2-oxanyl]oxy]-11-ethyl-8-hydroxy-18-[(1R)-1-hydroxyethyl]-9,13,15-trimethyl-2-oxo-1-oxacyclooctadeca-3,5,9,13,15-pentaen-3-yl]methoxy]-4-hydroxy-5-methoxy-2-methyl-3-oxanyl] ester

> <PUBCHEM_IUPAC_NAME_MARKUP>
[(2<I>R</I>,3<I>S</I>,4<I>S</I>,5<I>S</I>,6<I>R</I>)-6-[[(3<I>E</I>,5<I>E</I>,8<I>S</I>,9<I>E</I>,11<I>S</I>,12<I>R</I>,13<I>E</I>,15<I>E</I>,18<I>S</I>)-12-[(2<I>R</I>,3<I>S</I>,4<I>R</I>,5<I>S</I>)-3,4-dihydroxy-6,6-dimethyl-5-(2-methylpropanoyloxy)oxan-2-yl]oxy-11-ethyl-8-hydroxy-18-[(1<I>R</I>)-1-hydroxyethyl]-9,13,15-trimethyl-2-oxo-1-oxacyclooctadeca-3,5,9,13,15-pentaen-3-yl]methoxy]-4-hydroxy-5-methoxy-2-methyloxan-3-yl] 3,5-dichloro-2-ethyl-4,6-dihydroxybenzoate

> <PUBCHEM_IUPAC_NAME>
[(2R,3S,4S,5S,6R)-6-[[(3E,5E,8S,9E,11S,12R,13E,15E,18S)-12-[(2R,3S,4R,5S)-3,4-dihydroxy-6,6-dimethyl-5-(2-methylpropanoyloxy)oxan-2-yl]oxy-11-ethyl-8-hydroxy-18-[(1R)-1-hydroxyethyl]-9,13,15-trimethyl-2-oxo-1-oxacyclooctadeca-3,5,9,13,15-pentaen-3-yl]methoxy]-4-hydroxy-5-methoxy-2-methyloxan-3-yl] 3,5-dichloro-2-ethyl-4,6-dihydroxybenzoate

> <PUBCHEM_IUPAC_SYSTEMATIC_NAME>
[(2R,3S,4S,5S,6R)-6-[[(3E,5E,8S,9E,11S,12R,13E,15E,18S)-12-[(2R,3S,4R,5S)-6,6-dimethyl-5-(2-methylpropanoyloxy)-3,4-bis(oxidanyl)oxan-2-yl]oxy-11-ethyl-9,13,15-trimethyl-8-oxidanyl-18-[(1R)-1-oxidanylethyl]-2-oxidanylidene-1-oxacyclooctadeca-3,5,9,13,15-pentaen-3-yl]methoxy]-5-methoxy-2-methyl-4-oxidanyl-oxan-3-yl] 3,5-bis(chloranyl)-2-ethyl-4,6-bis(oxidanyl)benzoate

> <PUBCHEM_IUPAC_TRADITIONAL_NAME>
3,5-dichloro-2-ethyl-4,6-dihydroxy-benzoic acid [(2R,3S,4S,5S,6R)-6-[[(3E,5E,8S,9E,11S,12R,13E,15E,18S)-12-[(2R,3S,4R,5S)-3,4-dihydroxy-5-isobutyryloxy-6,6-dimethyl-tetrahydropyran-2-yl]oxy-11-ethyl-8-hydroxy-18-[(1R)-1-hydroxyethyl]-2-keto-9,13,15-trimethyl-1-oxacyclooctadeca-3,5,9,13,15-pentaen-3-yl]methoxy]-4-hydroxy-5-methoxy-2-methyl-tetrahydropyran-3-yl] ester

> <PUBCHEM_IUPAC_INCHI>
InChI=1S/C52H74Cl2O18/c1-13-30-22-26(6)33(56)18-16-15-17-31(23-66-51-45(65-12)42(61)44(29(9)67-51)69-49(64)35-32(14-2)36(53)39(58)37(54)38(35)57)48(63)68-34(28(8)55)20-19-25(5)21-27(7)43(30)70-50-41(60)40(59)46(52(10,11)72-50)71-47(62)24(3)4/h15-17,19,21-22,24,28-30,33-34,40-46,50-51,55-61H,13-14,18,20,23H2,1-12H3/b16-15+,25-19+,26-22+,27-21+,31-17+/t28-,29-,30+,33+,34+,40-,41+,42+,43+,44-,45+,46+,50-,51-/m1/s1

> <PUBCHEM_IUPAC_INCHIKEY>
ZVGNESXIJDCBKN-UUEYKCAUSA-N

> <PUBCHEM_XLOGP3_AA>
6.4

> <PUBCHEM_EXACT_MASS>
1056.4252209

> <PUBCHEM_MOLECULAR_FORMULA>
C52H74Cl2O18

> <PUBCHEM_MOLECULAR_WEIGHT>
1058.0

> <PUBCHEM_OPENEYE_CAN_SMILES>
CCC1C=C(C(CC=CC=C(C(=O)OC(CC=C(C=C(C1OC2C(C(C(C(O2)(C)C)OC(=O)C(C)C)O)O)C)C)C(C)O)COC3C(C(C(C(O3)C)OC(=O)C4=C(C(=C(C(=C4O)Cl)O)Cl)CC)O)OC)O)C

> <PUBCHEM_OPENEYE_ISO_SMILES>
CC[C@H]1/C=C(/[C@H](C/C=C/C=C(/C(=O)O[C@@H](C/C=C(/C=C(/[C@@H]1O[C@H]2[C@H]([C@H]([C@@H](C(O2)(C)C)OC(=O)C(C)C)O)O)\C)\C)[C@@H](C)O)\CO[C@H]3[C@H]([C@H]([C@@H]([C@H](O3)C)OC(=O)C4=C(C(=C(C(=C4O)Cl)O)Cl)CC)O)OC)O)\C

> <PUBCHEM_CACTVS_TPSA>
267

> <PUBCHEM_MONOISOTOPIC_WEIGHT>
1056.4252209

> <PUBCHEM_TOTAL_CHARGE>
0

> <PUBCHEM_HEAVY_ATOM_COUNT>
72

> <PUBCHEM_ATOM_DEF_STEREO_COUNT>
14

> <PUBCHEM_ATOM_UDEF_STEREO_COUNT>
0

> <PUBCHEM_BOND_DEF_STEREO_COUNT>
5

> <PUBCHEM_BOND_UDEF_STEREO_COUNT>
0

> <PUBCHEM_ISOTOPIC_ATOM_COUNT>
0

> <PUBCHEM_COMPONENT_COUNT>
1

> <PUBCHEM_CACTVS_TAUTO_COUNT>
-1

> <PUBCHEM_COORDINATE_TYPE>
1
5
255

> <PUBCHEM_BONDANNOTATIONS>
36  10  5
39  11  5
35  12  5
47  14  6
61  17  6
29  31  6
38  44  5
25  4  6
28  4  5
22  5  5
57  130  5
23  6  6
60  65  8
60  66  8
65  69  8
66  70  8
69  71  8
24  7  6
70  71  8
34  9  6

$$$$
