C:/Users/charl/WebstormProjects/aims/src/molecules/sdf/rifabutin.sdf
__Jmol-16.12022419033D 1   1.00000     0.00000     0
Jmol version 16.2.5  2024-04-16 21:43 EXTRACT: ({0:122})
123128  0  0  0  0            999 V2000
   -0.5585    0.3804    1.6862 C   0  0  0  0  0  0
    0.7865    0.2812    1.2905 C   0  0  0  0  0  0
   -1.1486    1.6488    1.9247 C   0  0  0  0  0  0
    1.5018    1.4830    1.1268 C   0  0  0  0  0  0
   -0.4383    2.8365    1.7141 C   0  0  0  0  0  0
    0.8936    2.7060    1.3055 C   0  0  0  0  0  0
   -1.3468   -0.8557    1.9312 C   0  0  0  0  0  0
   -0.8239   -2.1888    1.4913 C   0  0  0  0  0  0
    1.3437   -1.0814    1.0930 C   0  0  0  0  0  0
    0.4636   -2.2579    1.1387 C   0  0  0  0  0  0
    2.5891   -1.3788    0.8800 N   0  0  0  0  0  0
    2.6311   -2.8591    0.7824 C   0  0  2  0  0  0
    1.2613   -3.2956    0.7976 N   0  0  0  0  0  0
    2.8677    1.7925    0.7091 C   0  0  0  0  0  0
    2.9326    3.3031    0.4951 C   0  0  2  0  0  0
    1.6776    3.8160    1.0243 O   0  0  0  0  0  0
    3.3566   -3.4191    2.0109 C   0  0  2  0  0  0
    3.2885   -3.2834   -0.5357 C   0  0  2  0  0  0
    4.8523   -3.1758    1.9276 C   0  0  2  0  0  0
    4.7970   -3.1003   -0.4975 C   0  0  2  0  0  0
    5.4094   -3.7564    0.6801 N   0  0  0  0  0  0
    6.8825   -3.5809    0.6290 C   0  0  2  0  0  0
    7.6707   -4.4595    1.6210 C   0  0  2  0  0  0
    9.1601   -4.1441    1.4916 C   0  0  0  0  0  0
    7.4246   -5.9528    1.3790 C   0  0  0  0  0  0
   -2.3755   -0.7522    2.5818 O   0  0  0  0  0  0
   -2.9598   -3.0213   -0.1621 O   0  0  0  0  0  0
   -1.6128   -3.3054    1.6720 N   0  0  0  0  0  0
   -2.7714   -3.4873    0.9557 C   0  0  0  0  0  0
   -2.4536    1.7698    2.3899 O   0  0  0  0  0  0
   -6.4415    0.8523   -0.6922 O   0  0  0  0  0  0
   -5.0482   -1.4148    1.5089 C   0  0  0  0  0  0
   -5.6242   -2.5426    1.9487 C   0  0  0  0  0  0
   -3.7824   -4.3399    1.6595 C   0  0  0  0  0  0
   -4.9953   -3.8662    2.0429 C   0  0  0  0  0  0
   -5.2431    0.7911    0.0964 C   0  0  1  0  0  0
   -5.4906    0.0332    1.4680 C   0  0  1  0  0  0
   -2.1305    0.9535   -2.5182 C   0  0  2  0  0  0
   -3.3519    1.4034   -1.6156 C   0  0  1  0  0  0
   -4.0512    0.2637   -0.8051 C   0  0  2  0  0  0
   -0.9479    2.0034   -2.6123 C   0  0  1  0  0  0
    0.2510    1.5601   -3.5593 C   0  0  1  0  0  0
    1.2911    2.6424   -4.0628 C   0  0  2  0  0  0
    2.2942    3.2482   -3.1153 C   0  0  0  0  0  0
   -2.8807    2.3137   -0.6235 O   0  0  0  0  0  0
   -4.5287   -0.8875   -1.7086 C   0  0  0  0  0  0
   -6.8836    0.2663    2.0668 C   0  0  0  0  0  0
   -3.3818   -5.7569    1.9587 C   0  0  0  0  0  0
    3.1760    3.6809   -0.8971 O   0  0  0  0  0  0
    4.0536    3.8956    1.3429 C   0  0  0  0  0  0
    2.2332    3.1650   -1.7875 C   0  0  0  0  0  0
    0.6459    3.7567   -4.7013 O   0  0  0  0  0  0
    0.2887    3.5172   -6.0676 C   0  0  0  0  0  0
   -1.5265    3.2323   -3.0938 O   0  0  0  0  0  0
    0.9782    0.3120   -3.0250 C   0  0  0  0  0  0
   -1.0526    4.1995    1.9124 C   0  0  0  0  0  0
    3.7828    0.9996    0.5388 O   0  0  0  0  0  0
   -2.6439    0.5988   -3.9274 C   0  0  0  0  0  0
   -1.2021    4.3970   -2.4384 C   0  0  0  0  0  0
   -1.9250    5.5557   -3.0638 C   0  0  0  0  0  0
   -0.5087    4.4840   -1.4393 O   0  0  0  0  0  0
    0.9906   -4.2757    0.8488 H   0  0  0  0  0  0
    3.1729   -4.4945    2.0973 H   0  0  0  0  0  0
    2.9680   -2.9693    2.9367 H   0  0  0  0  0  0
    2.8701   -2.7236   -1.3781 H   0  0  0  0  0  0
    3.0685   -4.3433   -0.7326 H   0  0  0  0  0  0
    5.3000   -3.6434    2.8047 H   0  0  0  0  0  0
    5.0664   -2.1041    1.9962 H   0  0  0  0  0  0
    5.0363   -2.0279   -0.5165 H   0  0  0  0  0  0
    5.2060   -3.5267   -1.4173 H   0  0  0  0  0  0
    7.1402   -2.5276    0.7770 H   0  0  0  0  0  0
    7.2318   -3.8344   -0.3811 H   0  0  0  0  0  0
    7.3775   -4.2254    2.6528 H   0  0  0  0  0  0
    9.5316   -4.3652    0.4837 H   0  0  0  0  0  0
    9.7487   -4.7293    2.1999 H   0  0  0  0  0  0
    9.3558   -3.0846    1.6951 H   0  0  0  0  0  0
    8.0116   -6.5623    2.0689 H   0  0  0  0  0  0
    7.7047   -6.2431    0.3573 H   0  0  0  0  0  0
    6.3744   -6.2153    1.5246 H   0  0  0  0  0  0
   -1.1344   -4.1714    1.8874 H   0  0  0  0  0  0
   -2.8028    0.8678    2.5514 H   0  0  0  0  0  0
   -7.1079    1.3545   -0.1866 H   0  0  0  0  0  0
   -4.0368   -1.4998    1.1686 H   0  0  0  0  0  0
   -6.6389   -2.4941    2.3358 H   0  0  0  0  0  0
   -5.6436   -4.5691    2.5519 H   0  0  0  0  0  0
   -5.0381    1.8330    0.3707 H   0  0  0  0  0  0
   -4.8132    0.5122    2.1745 H   0  0  0  0  0  0
   -1.7186    0.0382   -2.0744 H   0  0  0  0  0  0
   -4.0955    1.9365   -2.2148 H   0  0  0  0  0  0
   -3.2743   -0.1150   -0.1413 H   0  0  0  0  0  0
   -0.5677    2.1292   -1.5980 H   0  0  0  0  0  0
   -0.2191    1.2418   -4.4855 H   0  0  0  0  0  0
    1.9142    2.1414   -4.8168 H   0  0  0  0  0  0
    3.1249    3.7878   -3.5626 H   0  0  0  0  0  0
   -2.7524    3.1783   -1.0394 H   0  0  0  0  0  0
   -3.6820   -1.4120   -2.1662 H   0  0  0  0  0  0
   -5.1786   -0.5270   -2.5075 H   0  0  0  0  0  0
   -5.0965   -1.6379   -1.1587 H   0  0  0  0  0  0
   -7.6720   -0.1820    1.4586 H   0  0  0  0  0  0
   -7.0887    1.3400    2.1577 H   0  0  0  0  0  0
   -6.9589   -0.1545    3.0734 H   0  0  0  0  0  0
   -4.1011   -6.4598    1.5342 H   0  0  0  0  0  0
   -3.3272   -5.9203    3.0383 H   0  0  0  0  0  0
   -2.4015   -6.0072    1.5371 H   0  0  0  0  0  0
    4.0483    4.9898    1.2723 H   0  0  0  0  0  0
    5.0336    3.5533    1.0055 H   0  0  0  0  0  0
    3.9396    3.6395    2.4035 H   0  0  0  0  0  0
    1.3961    2.6871   -1.3065 H   0  0  0  0  0  0
   -0.4609    2.7221   -6.1423 H   0  0  0  0  0  0
    1.1752    3.2570   -6.6585 H   0  0  0  0  0  0
   -0.1413    4.4314   -6.4753 H   0  0  0  0  0  0
    1.5278    0.5053   -2.1034 H   0  0  0  0  0  0
    1.6987   -0.0615   -3.7645 H   0  0  0  0  0  0
    0.2883   -0.5077   -2.8226 H   0  0  0  0  0  0
   -0.9956    4.7887    0.9965 H   0  0  0  0  0  0
   -0.5288    4.7349    2.7075 H   0  0  0  0  0  0
   -2.1123    4.1500    2.1926 H   0  0  0  0  0  0
   -1.9108    0.0290   -4.4965 H   0  0  0  0  0  0
   -2.8934    1.5004   -4.5003 H   0  0  0  0  0  0
   -3.5448   -0.0149   -3.9170 H   0  0  0  0  0  0
   -1.2022    6.3159   -3.3678 H   0  0  0  0  0  0
   -2.6369    5.9663   -2.3375 H   0  0  0  0  0  0
   -2.4841    5.2345   -3.9468 H   0  0  0  0  0  0
  1  2  2
  1  3  1
  1  7  1
  2  4  1
  2  9  1
  3 30  1
  3  5  2
  4 14  1
  4  6  2
  5  6  1
  5 56  1
  6 16  1
  7  8  1
  7 26  2
  8 10  2
  8 28  1
  9 11  2
  9 10  1
 10 13  1
 11 12  1
 12 13  1
 12 17  1
 12 18  1
 14 15  1
 14 57  2
 15 16  1
 15 49  1
 15 50  1
 17 19  1
 18 20  1
 19 21  1
 20 21  1
 21 22  1
 22 23  1
 23 24  1
 23 25  1
 27 29  2
 28 29  1
 29 34  1
 36 31  1
 32 33  2
 32 37  1
 33 35  1
 34 35  2
 34 48  1
 36 37  1
 36 40  1
 37 47  1
 38 39  1
 38 41  1
 38 58  1
 39 40  1
 39 45  1
 40 46  1
 41 42  1
 41 54  1
 42 43  1
 42 55  1
 43 44  1
 43 52  1
 44 51  2
 49 51  1
 52 53  1
 54 59  1
 59 60  1
 59 61  2
 62 13  1
 63 17  1
 64 17  1
 65 18  1
 66 18  1
 67 19  1
 68 19  1
 69 20  1
 70 20  1
 71 22  1
 72 22  1
 73 23  1
 74 24  1
 75 24  1
 76 24  1
 77 25  1
 78 25  1
 79 25  1
 80 28  1
 81 30  1
 82 31  1
 83 32  1
 84 33  1
 85 35  1
 86 36  1
 87 37  1
 88 38  1
 89 39  1
 90 40  1
 91 41  1
 92 42  1
 93 43  1
 94 44  1
 95 45  1
 96 46  1
 97 46  1
 98 46  1
 99 47  1
100 47  1
101 47  1
102 48  1
103 48  1
104 48  1
105 50  1
106 50  1
107 50  1
108 51  1
109 53  1
110 53  1
111 53  1
112 55  1
113 55  1
114 55  1
115 56  1
116 56  1
117 56  1
118 58  1
119 58  1
120 58  1
121 60  1
122 60  1
123 60  1
M  END
> <PUBCHEM_COMPOUND_CID>
6323490


> <PUBCHEM_COMPOUND_CANONICALIZED>
1


> <PUBCHEM_CACTVS_COMPLEXITY>
1870


> <PUBCHEM_CACTVS_HBOND_ACCEPTOR>
14


> <PUBCHEM_CACTVS_HBOND_DONOR>
5


> <PUBCHEM_CACTVS_ROTATABLE_BOND>
5


> <PUBCHEM_CACTVS_SUBSKEYS>
AAADcfB/vAAAAAAAAAAAAAAAAAAAASIAAAA8QIAAAAAAAEABAAAAHgAQCAAADRzhmAYDDoPABgCoA6Xy+
XAKCCAAkIAAIiAHsCNicNzaG9T+meWCl9BeMucf4//7u4AADCAAYAADAAAYQADAAAAAAAAAAAA==


> <PUBCHEM_IUPAC_OPENEYE_NAME>
[(7S,9E,11S,12R,13S,14R,15R,16R,17S,18S,19E,21Z)-2,15,17-trihydroxy-1'-isobutyl-+
11-methoxy-3,7,12,14,16,18,22-heptamethyl-6,23,32-trioxo-spiro[8,33-dioxa-24,27,+
29-triazapentacyclo[23.6.1.14,7.05,31.026,30]tritriaconta-1(31),2,4,9,19,21,25,2+
9-octaene-28,4'-piperidine]-13-yl] acetate


> <PUBCHEM_IUPAC_CAS_NAME>
acetic acid [(7S,9E,11S,12R,13S,14R,15R,16R,17S,18S,19E,21Z)-2,15,17-trihydroxy-+
11-methoxy-3,7,12,14,16,18,22-heptamethyl-1'-(2-methylpropyl)-6,23,32-trioxo-13-+
spiro[8,33-dioxa-24,27,29-triazapentacyclo[23.6.1.14,7.05,31.026,30]tritriaconta+
-1(31),2,4,9,19,21,25,29-octaene-28,4'-piperidine]yl] ester


> <PUBCHEM_IUPAC_NAME_MARKUP>
[(7<I>S</I>,9<I>E</I>,11<I>S</I>,12<I>R</I>,13<I>S</I>,14<I>R</I>,15<I>R</I>,16<+
I>R</I>,17<I>S</I>,18<I>S</I>,19<I>E</I>,21<I>Z</I>)-2,15,17-trihydroxy-11-metho+
xy-3,7,12,14,16,18,22-heptamethyl-1&apos;-(2-methylpropyl)-6,23,32-trioxospiro[8+
,33-dioxa-24,27,29-triazapentacyclo[23.6.1.1<SUP>4,7</SUP>.0<SUP>5,31</SUP>.0<SU+
P>26,30</SUP>]tritriaconta-1(31),2,4,9,19,21,25,29-octaene-28,4&apos;-piperidine+
]-13-yl] acetate


> <PUBCHEM_IUPAC_NAME>
[(7S,9E,11S,12R,13S,14R,15R,16R,17S,18S,19E,21Z)-2,15,17-trihydroxy-11-methoxy-3+
,7,12,14,16,18,22-heptamethyl-1'-(2-methylpropyl)-6,23,32-trioxospiro[8,33-dioxa+
-24,27,29-triazapentacyclo[23.6.1.14,7.05,31.026,30]tritriaconta-1(31),2,4,9,19,+
21,25,29-octaene-28,4'-piperidine]-13-yl] acetate


> <PUBCHEM_IUPAC_SYSTEMATIC_NAME>
[(7S,9E,11S,12R,13S,14R,15R,16R,17S,18S,19E,21Z)-11-methoxy-3,7,12,14,16,18,22-h+
eptamethyl-1'-(2-methylpropyl)-2,15,17-tris(oxidanyl)-6,23,32-tris(oxidanylidene+
)spiro[8,33-dioxa-24,27,29-triazapentacyclo[23.6.1.14,7.05,31.026,30]tritriacont+
a-1(31),2,4,9,19,21,25,29-octaene-28,4'-piperidine]-13-yl] ethanoate


> <PUBCHEM_IUPAC_TRADITIONAL_NAME>
acetic acid [(7S,9E,11S,12R,13S,14R,15R,16R,17S,18S,19E,21Z)-2,15,17-trihydroxy-+
1'-isobutyl-6,23,32-triketo-11-methoxy-3,7,12,14,16,18,22-heptamethyl-spiro[8,33+
-dioxa-24,27,29-triazapentacyclo[23.6.1.14,7.05,31.026,30]tritriaconta-1(31),2,4+
,9,19,21,25,29-octaene-28,4'-piperidine]-13-yl] ester


> <PUBCHEM_IUPAC_INCHI>
InChI=1S/C46H62N4O11/c1-22(2)21-50-18-16-46(17-19-50)48-34-31-32-39(54)28(8)42-3+
3(31)43(56)45(10,61-42)59-20-15-30(58-11)25(5)41(60-29(9)51)27(7)38(53)26(6)37(5+
2)23(3)13-12-14-24(4)44(57)47-36(40(32)55)35(34)49-46/h12-15,20,22-23,25-27,30,3+
7-38,41,49,52-54H,16-19,21H2,1-11H3,(H,47,57)/b13-12+,20-15+,24-14-/t23-,25+,26++
,27+,30-,37-,38+,41+,45-/m0/s1


> <PUBCHEM_IUPAC_INCHIKEY>
ATEBXHFBFRCZMA-VXTBVIBXSA-N


> <PUBCHEM_XLOGP3_AA>
6.3


> <PUBCHEM_EXACT_MASS>
846.44150881


> <PUBCHEM_MOLECULAR_FORMULA>
C46H62N4O11


> <PUBCHEM_MOLECULAR_WEIGHT>
847.0


> <PUBCHEM_OPENEYE_CAN_SMILES>
CC1C=CC=C(C(=O)NC2=C3C(=NC4(N3)CCN(CC4)CC(C)C)C5=C(C2=O)C(=C(C6=C5C(=O)C(O6)(OC=+
CC(C(C(C(C(C(C1O)C)O)C)OC(=O)C)C)OC)C)C)O)C


> <PUBCHEM_OPENEYE_ISO_SMILES>
C[C@H]1/C=C/C=C(\C(=O)NC2=C3C(=NC4(N3)CCN(CC4)CC(C)C)C5=C(C2=O)C(=C(C6=C5C(=O)[C+
@](O6)(O/C=C/[C@@H]([C@H]([C@H]([C@@H]([C@@H]([C@@H]([C@H]1O)C)O)C)OC(=O)C)C)OC)+
C)C)O)/C


> <PUBCHEM_CACTVS_TPSA>
206


> <PUBCHEM_MONOISOTOPIC_WEIGHT>
846.44150881


> <PUBCHEM_TOTAL_CHARGE>
0


> <PUBCHEM_HEAVY_ATOM_COUNT>
61


> <PUBCHEM_ATOM_DEF_STEREO_COUNT>
9


> <PUBCHEM_ATOM_UDEF_STEREO_COUNT>
0


> <PUBCHEM_BOND_DEF_STEREO_COUNT>
3


> <PUBCHEM_BOND_UDEF_STEREO_COUNT>
0


> <PUBCHEM_ISOTOPIC_ATOM_COUNT>
0


> <PUBCHEM_COMPONENT_COUNT>
1


> <PUBCHEM_CACTVS_TAUTO_COUNT>
-1


> <PUBCHEM_COORDINATE_TYPE>
1
5
255


> <PUBCHEM_BONDANNOTATIONS>
27  1  5
25  2  6
24  36  5
26  32  8
26  34  8
28  40  6
30  47  6
32  42  8
34  38  8
38  46  8
39  49  6
33  4  5
41  51  5
42  46  8
37  6  6


> <JMOL_ATOM_NAMES>
123
1 C1
2 C2
3 C3
4 C4
5 C5
6 C6
7 C7
8 C8
9 C9
10 C10
11 N11
12 C12
13 N13
14 C14
15 C15
16 O16
17 C17
18 C18
19 C19
20 C20
21 N21
22 C22
23 C23
24 C24
25 C25
26 O26
27 O27
28 N28
29 C29
30 O30
31 O31
32 C32
33 C33
34 C34
35 C35
36 C36
37 C37
38 C38
39 C39
40 C40
41 C41
42 C42
43 C43
44 C44
45 O45
46 C46
47 C47
48 C48
49 O49
50 C50
51 C51
52 O52
53 C53
54 O54
55 C55
56 C56
57 O57
58 C58
59 C59
60 C60
61 O61
62 H62
63 H63
64 H64
65 H65
66 H66
67 H67
68 H68
69 H69
70 H70
71 H71
72 H72
73 H73
74 H74
75 H75
76 H76
77 H77
78 H78
79 H79
80 H80
81 H81
82 H82
83 H83
84 H84
85 H85
86 H86
87 H87
88 H88
89 H89
90 H90
91 H91
92 H92
93 H93
94 H94
95 H95
96 H96
97 H97
98 H98
99 H99
100 H100
101 H101
102 H102
103 H103
104 H104
105 H105
106 H106
107 H107
108 H108
109 H109
110 H110
111 H111
112 H112
113 H113
114 H114
115 H115
116 H116
117 H117
118 H118
119 H119
120 H120
121 H121
122 H122
123 H123


$$$$
