C:/Users/charl/WebstormProjects/aims/src/molecules/sdf/rifapentine.sdf
__Jmol-16.12022419063D 1   1.00000     0.00000     0
Jmol version 16.2.5  2024-04-16 21:43 EXTRACT: ({0:126})
127132  0  0  0  0            999 V2000
   -0.6465    1.8949   -1.6883 C   0  0  0  0  0  0
    0.2745    2.6528   -2.3689 C   0  0  0  0  0  0
   -0.7701    4.2327   -1.1045 C   0  0  1  0  0  0
    0.1116   -0.1117   -2.8097 C   0  0  0  0  0  0
   -0.7633    0.4894   -1.8417 C   0  0  0  0  0  0
    0.2769    4.0110   -2.0931 O   0  0  0  0  0  0
    1.0278    0.7251   -3.5272 C   0  0  0  0  0  0
   -1.3715    2.8653   -0.8865 C   0  0  0  0  0  0
    1.1514    2.0981   -3.2903 C   0  0  0  0  0  0
    3.9795    2.7253    1.2350 C   0  0  1  0  0  0
   -0.7153   -3.6934   -2.6605 N   0  0  0  0  0  0
   -0.8695   -2.3312   -2.2936 C   0  0  0  0  0  0
    2.7823    1.7815    0.7927 C   0  0  1  0  0  0
   -1.6370   -0.3553   -1.0966 C   0  0  0  0  0  0
   -1.2850   -4.8841   -2.2868 C   0  0  0  0  0  0
    2.6066   -0.9599    0.1971 C   0  0  1  0  0  0
    3.3966    0.4136    0.2904 C   0  0  1  0  0  0
    0.0424   -1.5091   -2.9739 C   0  0  0  0  0  0
    3.9492    4.2416    0.8372 C   0  0  1  0  0  0
   -1.7263   -1.7452   -1.3350 C   0  0  0  0  0  0
    3.4124   -2.0073   -0.6888 C   0  0  2  0  0  0
   -0.4184   -6.0361   -2.6977 C   0  0  0  0  0  0
   -0.3612    4.7242    0.1964 O   0  0  0  0  0  0
    4.2457    2.5956    2.6409 O   0  0  0  0  0  0
    0.9880    4.9994    0.3333 C   0  0  0  0  0  0
    5.3677    2.0326    3.2268 C   0  0  0  0  0  0
    1.5981    4.9432    1.5170 C   0  0  0  0  0  0
    3.0608    5.1965    1.6976 C   0  0  2  0  0  0
    1.9535   -5.2093   -1.9954 C   0  0  0  0  0  0
   -2.3261    2.5839   -0.1634 O   0  0  0  0  0  0
    0.9225   -6.1040   -2.5243 C   0  0  0  0  0  0
   -2.3740   -5.0777   -1.7678 O   0  0  0  0  0  0
    3.2189   -3.5663   -0.6329 C   0  0  2  0  0  0
    1.9189   -4.1820   -1.1245 C   0  0  0  0  0  0
    5.4802    2.0561    4.4373 O   0  0  0  0  0  0
    1.8297    0.2309   -4.5510 O   0  0  0  0  0  0
    3.9774    0.6646   -1.0123 O   0  0  0  0  0  0
    0.9636   -2.1916   -3.7790 O   0  0  0  0  0  0
    4.8152   -1.8174   -0.4628 O   0  0  0  0  0  0
   -1.8043    5.2009   -1.6711 C   0  0  0  0  0  0
    2.2009    2.9319   -3.9840 C   0  0  0  0  0  0
    2.2981   -1.5363    1.5827 C   0  0  0  0  0  0
    3.3060    6.5583    1.2696 O   0  0  0  0  0  0
   -1.1405   -7.1782   -3.3610 C   0  0  0  0  0  0
    6.4546    1.3891    2.3805 C   0  0  0  0  0  0
    3.6162   -4.2466    0.6853 C   0  0  0  0  0  0
    2.8707    7.5447    2.2219 C   0  0  0  0  0  0
    1.7230    1.6039    1.8837 C   0  0  0  0  0  0
    5.3915    4.7808    0.8440 C   0  0  0  0  0  0
   -2.3567    0.1307   -0.0070 O   0  0  0  0  0  0
   -2.7176   -2.5420   -0.5632 C   0  0  0  0  0  0
   -3.8981   -2.0233   -0.3652 N   0  0  0  0  0  0
   -4.8912   -2.7374    0.2571 N   0  0  0  0  0  0
   -6.1083   -1.9270    0.5034 C   0  0  2  0  0  0
   -4.6715   -3.6767    1.3937 C   0  0  2  0  0  0
   -6.1100   -1.2374    1.8777 C   0  0  2  0  0  0
   -4.7696   -3.0300    2.7906 C   0  0  2  0  0  0
   -6.0133   -2.2307    2.9760 N   0  0  0  0  0  0
   -6.1205   -1.6815    4.3578 C   0  0  2  0  0  0
   -7.4950   -1.1429    4.7225 C   0  0  2  0  0  0
   -5.1805   -0.5493    4.7805 C   0  0  2  0  0  0
   -7.2379   -0.5337    6.0843 C   0  0  2  0  0  0
   -5.8874    0.1496    5.9385 C   0  0  2  0  0  0
    4.8395    2.3665    0.6782 H   0  0  0  0  0  0
    0.0932   -3.8092   -3.2677 H   0  0  0  0  0  0
    2.2937    2.2466   -0.0663 H   0  0  0  0  0  0
    1.6439   -0.7818   -0.2965 H   0  0  0  0  0  0
    4.2420    0.2021    0.9547 H   0  0  0  0  0  0
    3.6342    4.2996   -0.2131 H   0  0  0  0  0  0
    3.2448   -1.7209   -1.7368 H   0  0  0  0  0  0
    1.5028    5.2854   -0.5846 H   0  0  0  0  0  0
    1.0168    4.7212    2.4082 H   0  0  0  0  0  0
    3.3304    5.0985    2.7540 H   0  0  0  0  0  0
    2.9360   -5.5197   -2.3373 H   0  0  0  0  0  0
    1.3823   -7.0229   -2.8836 H   0  0  0  0  0  0
    3.9915   -3.9180   -1.3232 H   0  0  0  0  0  0
    0.9943   -3.8385   -0.6744 H   0  0  0  0  0  0
    2.2188   -0.6131   -4.2719 H   0  0  0  0  0  0
    4.1393    1.6124   -1.1483 H   0  0  0  0  0  0
    0.9855   -1.7639   -4.6488 H   0  0  0  0  0  0
    5.0270   -0.9479   -0.8495 H   0  0  0  0  0  0
   -2.2572    4.8187   -2.5889 H   0  0  0  0  0  0
   -1.3330    6.1563   -1.9146 H   0  0  0  0  0  0
   -2.6007    5.4067   -0.9450 H   0  0  0  0  0  0
    2.0647    2.8975   -5.0706 H   0  0  0  0  0  0
    3.2011    2.5534   -3.7374 H   0  0  0  0  0  0
    2.1723    3.9807   -3.6822 H   0  0  0  0  0  0
    3.2175   -1.7858    2.1280 H   0  0  0  0  0  0
    1.6801   -2.4283    1.4969 H   0  0  0  0  0  0
    1.7187   -0.8710    2.2120 H   0  0  0  0  0  0
   -1.0256   -8.1010   -2.7809 H   0  0  0  0  0  0
   -0.7352   -7.3514   -4.3626 H   0  0  0  0  0  0
   -2.2085   -6.9914   -3.4798 H   0  0  0  0  0  0
    6.5752    0.3505    2.7094 H   0  0  0  0  0  0
    7.3914    1.9343    2.5425 H   0  0  0  0  0  0
    6.2739    1.3594    1.3118 H   0  0  0  0  0  0
    3.7938   -5.3172    0.5210 H   0  0  0  0  0  0
    2.8458   -4.1853    1.4511 H   0  0  0  0  0  0
    4.5445   -3.8351    1.0944 H   0  0  0  0  0  0
    3.4457    7.4597    3.1461 H   0  0  0  0  0  0
    1.8027    7.4551    2.4343 H   0  0  0  0  0  0
    3.0493    8.5364    1.7903 H   0  0  0  0  0  0
    2.1283    1.1063    2.7651 H   0  0  0  0  0  0
    0.8683    1.0314    1.5035 H   0  0  0  0  0  0
    1.3200    2.5478    2.2309 H   0  0  0  0  0  0
    5.7889    4.8569    1.8630 H   0  0  0  0  0  0
    5.4557    5.7759    0.3877 H   0  0  0  0  0  0
    6.0654    4.1418    0.2712 H   0  0  0  0  0  0
   -2.5932    1.0768   -0.0887 H   0  0  0  0  0  0
   -2.4280   -3.5340   -0.2021 H   0  0  0  0  0  0
   -6.9919   -2.5638    0.4021 H   0  0  0  0  0  0
   -6.2025   -1.1597   -0.2728 H   0  0  0  0  0  0
   -3.7192   -4.2114    1.3094 H   0  0  0  0  0  0
   -5.4334   -4.4584    1.3232 H   0  0  0  0  0  0
   -7.0425   -0.6648    1.9625 H   0  0  0  0  0  0
   -5.2894   -0.5148    1.9198 H   0  0  0  0  0  0
   -3.8861   -2.4084    2.9630 H   0  0  0  0  0  0
   -4.7443   -3.8342    3.5321 H   0  0  0  0  0  0
   -5.9422   -2.5204    5.0378 H   0  0  0  0  0  0
   -8.2579   -1.9312    4.7657 H   0  0  0  0  0  0
   -7.8405   -0.3727    4.0283 H   0  0  0  0  0  0
   -5.0097    0.1761    3.9844 H   0  0  0  0  0  0
   -4.1959   -0.9330    5.0782 H   0  0  0  0  0  0
   -7.1852   -1.3161    6.8476 H   0  0  0  0  0  0
   -8.0280    0.1665    6.3828 H   0  0  0  0  0  0
   -6.0162    1.2120    5.7139 H   0  0  0  0  0  0
   -5.3107    0.0850    6.8708 H   0  0  0  0  0  0
  1  2  2
  1  5  1
  1  8  1
  2  6  1
  2  9  1
  3  8  1
  3 23  1
  3 40  1
  3  6  1
  4  5  2
  4  7  1
  4 18  1
  5 14  1
  7 36  1
  7  9  2
  8 30  2
  9 41  1
 10 19  1
 10 13  1
 10 24  1
 11 12  1
 11 15  1
 12 20  1
 12 18  2
 13 17  1
 13 48  1
 14 20  2
 14 50  1
 15 22  1
 15 32  2
 16 17  1
 16 21  1
 16 42  1
 17 37  1
 18 38  1
 19 28  1
 19 49  1
 20 51  1
 21 39  1
 21 33  1
 22 31  2
 22 44  1
 23 25  1
 24 26  1
 25 27  2
 26 35  2
 26 45  1
 27 28  1
 28 43  1
 29 31  1
 29 34  2
 33 34  1
 33 46  1
 43 47  1
 51 52  2
 52 53  1
 53 54  1
 53 55  1
 54 56  1
 55 57  1
 56 58  1
 57 58  1
 58 59  1
 59 60  1
 59 61  1
 60 62  1
 61 63  1
 62 63  1
 64 10  1
 65 11  1
 66 13  1
 67 16  1
 68 17  1
 69 19  1
 70 21  1
 71 25  1
 72 27  1
 73 28  1
 74 29  1
 75 31  1
 76 33  1
 77 34  1
 78 36  1
 79 37  1
 80 38  1
 81 39  1
 82 40  1
 83 40  1
 84 40  1
 85 41  1
 86 41  1
 87 41  1
 88 42  1
 89 42  1
 90 42  1
 91 44  1
 92 44  1
 93 44  1
 94 45  1
 95 45  1
 96 45  1
 97 46  1
 98 46  1
 99 46  1
100 47  1
101 47  1
102 47  1
103 48  1
104 48  1
105 48  1
106 49  1
107 49  1
108 49  1
109 50  1
110 51  1
111 54  1
112 54  1
113 55  1
114 55  1
115 56  1
116 56  1
117 57  1
118 57  1
119 59  1
120 60  1
121 60  1
122 61  1
123 61  1
124 62  1
125 62  1
126 63  1
127 63  1
M  END
> <PUBCHEM_COMPOUND_CID>
135403821


> <PUBCHEM_COMPOUND_CANONICALIZED>
1


> <PUBCHEM_CACTVS_COMPLEXITY>
1730


> <PUBCHEM_CACTVS_HBOND_ACCEPTOR>
15


> <PUBCHEM_CACTVS_HBOND_DONOR>
6


> <PUBCHEM_CACTVS_ROTATABLE_BOND>
6


> <PUBCHEM_CACTVS_SUBSKEYS>
AAADcfB/vAAAAAAAAAAAAAAAAAAAAaIAAAA8YIAAAAAAAEjBUAAAHgAYCAAADTzhmAYCzsPABgCoArXz+
WAKSCAAlIAAYiAFtTNgedzbWtZ+2eWjn7B3c+Yf6/P/O6QADSgAaEADSAAaUADQgAAAAAAAAAA==


> <PUBCHEM_IUPAC_OPENEYE_NAME>
[(7S,9E,11S,12R,13S,14R,15R,16R,17S,18S,19E,21Z)-26-[(E)-(4-cyclopentylpiperazin+
-1-yl)iminomethyl]-2,15,17,27,29-pentahydroxy-11-methoxy-3,7,12,14,16,18,22-hept+
amethyl-6,23-dioxo-8,30-dioxa-24-azatetracyclo[23.3.1.14,7.05,28]triaconta-1(29)+
,2,4,9,19,21,25,27-octaen-13-yl] acetate


> <PUBCHEM_IUPAC_CAS_NAME>
acetic acid [(7S,9E,11S,12R,13S,14R,15R,16R,17S,18S,19E,21Z)-26-[(E)-(4-cyclopen+
tyl-1-piperazinyl)iminomethyl]-2,15,17,27,29-pentahydroxy-11-methoxy-3,7,12,14,1+
6,18,22-heptamethyl-6,23-dioxo-8,30-dioxa-24-azatetracyclo[23.3.1.14,7.05,28]tri+
aconta-1(29),2,4,9,19,21,25,27-octaen-13-yl] ester


> <PUBCHEM_IUPAC_NAME_MARKUP>
[(7<I>S</I>,9<I>E</I>,11<I>S</I>,12<I>R</I>,13<I>S</I>,14<I>R</I>,15<I>R</I>,16<+
I>R</I>,17<I>S</I>,18<I>S</I>,19<I>E</I>,21<I>Z</I>)-26-[(<I>E</I>)-(4-cyclopent+
ylpiperazin-1-yl)iminomethyl]-2,15,17,27,29-pentahydroxy-11-methoxy-3,7,12,14,16+
,18,22-heptamethyl-6,23-dioxo-8,30-dioxa-24-azatetracyclo[23.3.1.1<SUP>4,7</SUP>+
.0<SUP>5,28</SUP>]triaconta-1(29),2,4,9,19,21,25,27-octaen-13-yl] acetate


> <PUBCHEM_IUPAC_NAME>
[(7S,9E,11S,12R,13S,14R,15R,16R,17S,18S,19E,21Z)-26-[(E)-(4-cyclopentylpiperazin+
-1-yl)iminomethyl]-2,15,17,27,29-pentahydroxy-11-methoxy-3,7,12,14,16,18,22-hept+
amethyl-6,23-dioxo-8,30-dioxa-24-azatetracyclo[23.3.1.14,7.05,28]triaconta-1(29)+
,2,4,9,19,21,25,27-octaen-13-yl] acetate


> <PUBCHEM_IUPAC_SYSTEMATIC_NAME>
[(7S,9E,11S,12R,13S,14R,15R,16R,17S,18S,19E,21Z)-26-[(E)-(4-cyclopentylpiperazin+
-1-yl)iminomethyl]-11-methoxy-3,7,12,14,16,18,22-heptamethyl-2,15,17,27,29-penta+
kis(oxidanyl)-6,23-bis(oxidanylidene)-8,30-dioxa-24-azatetracyclo[23.3.1.14,7.05+
,28]triaconta-1(29),2,4,9,19,21,25,27-octaen-13-yl] ethanoate


> <PUBCHEM_IUPAC_TRADITIONAL_NAME>
acetic acid [(7S,9E,11S,12R,13S,14R,15R,16R,17S,18S,19E,21Z)-26-[(E)-(4-cyclopen+
tylpiperazino)iminomethyl]-2,15,17,27,29-pentahydroxy-6,23-diketo-11-methoxy-3,7+
,12,14,16,18,22-heptamethyl-8,30-dioxa-24-azatetracyclo[23.3.1.14,7.05,28]triaco+
nta-1(29),2,4,9,19,21,25,27-octaen-13-yl] ester


> <PUBCHEM_IUPAC_INCHI>
InChI=1S/C47H64N4O12/c1-24-13-12-14-25(2)46(59)49-37-32(23-48-51-20-18-50(19-21-+
51)31-15-10-11-16-31)41(56)34-35(42(37)57)40(55)29(6)44-36(34)45(58)47(8,63-44)6+
1-22-17-33(60-9)26(3)43(62-30(7)52)28(5)39(54)27(4)38(24)53/h12-14,17,22-24,26-2+
8,31,33,38-39,43,53-57H,10-11,15-16,18-21H2,1-9H3,(H,49,59)/b13-12+,22-17+,25-14+
-,48-23+/t24-,26+,27+,28+,33-,38-,39+,43+,47-/m0/s1


> <PUBCHEM_IUPAC_INCHIKEY>
WDZCUPBHRAEYDL-GZAUEHORSA-N


> <PUBCHEM_XLOGP3_AA>
6.7


> <PUBCHEM_EXACT_MASS>
876.45207349


> <PUBCHEM_MOLECULAR_FORMULA>
C47H64N4O12


> <PUBCHEM_MOLECULAR_WEIGHT>
877.0


> <PUBCHEM_REFERENCE_STANDARDIZATION>
Bypass - this structure was created from CID 135403821


> <PUBCHEM_OPENEYE_CAN_SMILES>
CC1C=CC=C(C(=O)NC2=C(C(=C3C(=C2O)C(=C(C4=C3C(=O)C(O4)(OC=CC(C(C(C(C(C(C1O)C)O)C)+
OC(=O)C)C)OC)C)C)O)O)C=NN5CCN(CC5)C6CCCC6)C


> <PUBCHEM_OPENEYE_ISO_SMILES>
C[C@H]1/C=C/C=C(\C(=O)NC2=C(C(=C3C(=C2O)C(=C(C4=C3C(=O)[C@](O4)(O/C=C/[C@@H]([C@+
H]([C@H]([C@@H]([C@@H]([C@@H]([C@H]1O)C)O)C)OC(=O)C)C)OC)C)C)O)O)/C=N/N5CCN(CC5)+
C6CCCC6)/C


> <PUBCHEM_CACTVS_TPSA>
220


> <PUBCHEM_MONOISOTOPIC_WEIGHT>
876.45207349


> <PUBCHEM_TOTAL_CHARGE>
0


> <PUBCHEM_HEAVY_ATOM_COUNT>
63


> <PUBCHEM_ATOM_DEF_STEREO_COUNT>
9


> <PUBCHEM_ATOM_UDEF_STEREO_COUNT>
0


> <PUBCHEM_BOND_DEF_STEREO_COUNT>
4


> <PUBCHEM_BOND_UDEF_STEREO_COUNT>
0


> <PUBCHEM_ISOTOPIC_ATOM_COUNT>
0


> <PUBCHEM_COMPONENT_COUNT>
1


> <PUBCHEM_CACTVS_TAUTO_COUNT>
-1


> <PUBCHEM_COORDINATE_TYPE>
1
5
255


> <PUBCHEM_BONDANNOTATIONS>
28  1  5
25  2  5
24  32  5
29  35  6
31  3  5
30  36  6
34  37  5
33  4  6
43  49  8
43  51  8
45  59  5
47  48  8
47  49  8
47  54  8
48  53  8
51  55  8
53  56  8
54  55  8
54  58  8
56  58  8


> <JMOL_ATOM_NAMES>
127
1 C1
2 C2
3 C3
4 C4
5 C5
6 O6
7 C7
8 C8
9 C9
10 C10
11 N11
12 C12
13 C13
14 C14
15 C15
16 C16
17 C17
18 C18
19 C19
20 C20
21 C21
22 C22
23 O23
24 O24
25 C25
26 C26
27 C27
28 C28
29 C29
30 O30
31 C31
32 O32
33 C33
34 C34
35 O35
36 O36
37 O37
38 O38
39 O39
40 C40
41 C41
42 C42
43 O43
44 C44
45 C45
46 C46
47 C47
48 C48
49 C49
50 O50
51 C51
52 N52
53 N53
54 C54
55 C55
56 C56
57 C57
58 N58
59 C59
60 C60
61 C61
62 C62
63 C63
64 H64
65 H65
66 H66
67 H67
68 H68
69 H69
70 H70
71 H71
72 H72
73 H73
74 H74
75 H75
76 H76
77 H77
78 H78
79 H79
80 H80
81 H81
82 H82
83 H83
84 H84
85 H85
86 H86
87 H87
88 H88
89 H89
90 H90
91 H91
92 H92
93 H93
94 H94
95 H95
96 H96
97 H97
98 H98
99 H99
100 H100
101 H101
102 H102
103 H103
104 H104
105 H105
106 H106
107 H107
108 H108
109 H109
110 H110
111 H111
112 H112
113 H113
114 H114
115 H115
116 H116
117 H117
118 H118
119 H119
120 H120
121 H121
122 H122
123 H123
124 H124
125 H125
126 H126
127 H127


$$$$
