6915744
  -OEChem-07162411202D

134136  0  0  1  0            999 V2000
   -0.6962    2.8428    0.2880 O   0  0  0  0  0  0  0  0  0  0  0  0
   -2.7240   -0.9445   -1.1305 O   0  0  0  0  0  0  0  0  0  0  0  0
    1.8408    2.4660    1.5125 O   0  0  0  0  0  0  0  0  0  0  0  0
   -1.1479    4.7549   -1.0599 O   0  0  0  0  0  0  0  0  0  0  0  0
   -4.5045   -2.3455   -1.0086 O   0  0  0  0  0  0  0  0  0  0  0  0
    1.9767   -1.7707   -1.5954 O   0  0  0  0  0  0  0  0  0  0  0  0
   -3.6530   -3.2828    2.9486 O   0  0  0  0  0  0  0  0  0  0  0  0
   -2.8999    2.6828   -2.6908 O   0  0  0  0  0  0  0  0  0  0  0  0
    5.2193   -3.2887   -1.1290 O   0  0  0  0  0  0  0  0  0  0  0  0
   -5.9765   -2.7549    1.5506 O   0  0  0  0  0  0  0  0  0  0  0  0
    1.9832   -3.4216    0.6058 O   0  0  0  0  0  0  0  0  0  0  0  0
    1.3714    0.1653   -2.3126 O   0  0  0  0  0  0  0  0  0  0  0  0
    4.9515    0.5569    1.3988 O   0  0  0  0  0  0  0  0  0  0  0  0
    5.0508    2.2850    0.0563 O   0  0  0  0  0  0  0  0  0  0  0  0
    5.7012    5.4016   -1.7672 O   0  0  0  0  0  0  0  0  0  0  0  0
   -5.2504    3.4192   -0.4849 N   0  0  0  0  0  0  0  0  0  0  0  0
    4.8459   -0.6135    1.3893 N   0  0  0  0  0  0  0  0  0  0  0  0
   -0.0968    1.5052    0.4053 C   0  0  2  0  0  0  0  0  0  0  0  0
   -1.1556    0.3367    0.3608 C   0  0  2  0  0  0  0  0  0  0  0  0
    0.9615    1.3345    1.5760 C   0  0  1  0  0  0  0  0  0  0  0  0
   -1.3973   -0.3552   -1.0457 C   0  0  1  0  0  0  0  0  0  0  0  0
    1.8644    0.0455    1.3782 C   0  0  0  0  0  0  0  0  0  0  0  0
   -0.3187   -1.3206   -1.6965 C   0  0  2  0  0  0  0  0  0  0  0  0
    2.7230   -0.6655    2.4854 C   0  0  2  0  0  0  0  0  0  0  0  0
   -1.3286    3.3343   -0.9368 C   0  0  2  0  0  0  0  0  0  0  0  0
   -2.3646    0.7288    1.2813 C   0  0  0  0  0  0  0  0  0  0  0  0
   -3.1199   -2.2455   -0.6244 C   0  0  2  0  0  0  0  0  0  0  0  0
   -3.6988   -3.6638    1.5472 C   0  0  2  0  0  0  0  0  0  0  0  0
   -2.8224    2.9930   -1.2955 C   0  0  1  0  0  0  0  0  0  0  0  0
    0.3413    1.4902    2.9916 C   0  0  0  0  0  0  0  0  0  0  0  0
   -3.9415    4.0358   -0.9366 C   0  0  2  0  0  0  0  0  0  0  0  0
   -2.9944   -2.4373    0.9054 C   0  0  0  0  0  0  0  0  0  0  0  0
    4.1128   -2.7943    1.6843 C   0  0  1  0  0  0  0  0  0  0  0  0
    3.7929   -3.2317   -1.0433 C   0  0  1  0  0  0  0  0  0  0  0  0
   -5.1437   -3.7461    0.9382 C   0  0  2  0  0  0  0  0  0  0  0  0
    3.9000   -1.3427    1.8715 C   0  0  0  0  0  0  0  0  0  0  0  0
    3.4020   -3.4958    0.4661 C   0  0  2  0  0  0  0  0  0  0  0  0
   -3.4272    5.1756   -0.0162 C   0  0  0  0  0  0  0  0  0  0  0  0
   -5.2456   -3.5165   -0.6067 C   0  0  2  0  0  0  0  0  0  0  0  0
   -1.9931    5.6814   -0.3484 C   0  0  1  0  0  0  0  0  0  0  0  0
    3.3249   -1.8434   -1.6292 C   0  0  1  0  0  0  0  0  0  0  0  0
    1.0849   -0.9253   -1.8345 C   0  0  0  0  0  0  0  0  0  0  0  0
   -0.7270   -1.8032   -3.1259 C   0  0  0  0  0  0  0  0  0  0  0  0
    1.8866   -1.5473    3.4642 C   0  0  0  0  0  0  0  0  0  0  0  0
   -2.8376   -4.9491    1.3795 C   0  0  0  0  0  0  0  0  0  0  0  0
    5.5939   -3.2585    1.8858 C   0  0  0  0  0  0  0  0  0  0  0  0
    3.3085   -4.4308   -1.9227 C   0  0  0  0  0  0  0  0  0  0  0  0
    3.9678   -1.3566   -2.9764 C   0  0  0  0  0  0  0  0  0  0  0  0
   -4.9632   -4.7228   -1.5363 C   0  0  0  0  0  0  0  0  0  0  0  0
   -1.2597    6.2381    0.8934 C   0  0  0  0  0  0  0  0  0  0  0  0
   -6.5048    4.0664   -0.9661 C   0  0  0  0  0  0  0  0  0  0  0  0
   -5.4041    2.9844    0.9358 C   0  0  0  0  0  0  0  0  0  0  0  0
    3.3983   -1.8374   -4.3322 C   0  0  0  0  0  0  0  0  0  0  0  0
   -4.3504   -3.9547    4.0015 C   0  0  0  0  0  0  0  0  0  0  0  0
    5.8300    1.2846    0.7269 C   0  0  0  0  0  0  0  0  0  0  0  0
    5.7884    3.2325   -0.7290 C   0  0  0  0  0  0  0  0  0  0  0  0
    4.8831    4.4167   -1.1148 C   0  0  0  0  0  0  0  0  0  0  0  0
    5.0927    6.6668   -2.0501 C   0  0  0  0  0  0  0  0  0  0  0  0
    0.5282    1.4542   -0.4787 H   0  0  0  0  0  0  0  0  0  0  0  0
   -0.7763   -0.5160    0.9076 H   0  0  0  0  0  0  0  0  0  0  0  0
   -1.4693    0.4716   -1.7520 H   0  0  0  0  0  0  0  0  0  0  0  0
    2.5024    0.3306    0.5400 H   0  0  0  0  0  0  0  0  0  0  0  0
    1.3115   -0.7856    0.9572 H   0  0  0  0  0  0  0  0  0  0  0  0
   -0.3237   -2.2099   -1.0587 H   0  0  0  0  0  0  0  0  0  0  0  0
    3.1166    0.1226    3.1342 H   0  0  0  0  0  0  0  0  0  0  0  0
   -0.6902    2.9784   -1.7496 H   0  0  0  0  0  0  0  0  0  0  0  0
   -2.5598   -3.0349   -1.1246 H   0  0  0  0  0  0  0  0  0  0  0  0
   -2.3795    0.1809    2.2254 H   0  0  0  0  0  0  0  0  0  0  0  0
   -3.3179    0.5494    0.7941 H   0  0  0  0  0  0  0  0  0  0  0  0
   -2.3833    1.7680    1.6032 H   0  0  0  0  0  0  0  0  0  0  0  0
   -3.0985    2.0498   -0.8562 H   0  0  0  0  0  0  0  0  0  0  0  0
   -0.2476    2.4065    3.0686 H   0  0  0  0  0  0  0  0  0  0  0  0
    1.1105    1.5407    3.7651 H   0  0  0  0  0  0  0  0  0  0  0  0
   -0.3103    0.6556    3.2398 H   0  0  0  0  0  0  0  0  0  0  0  0
   -4.1377    4.5578   -1.8809 H   0  0  0  0  0  0  0  0  0  0  0  0
   -1.9450   -2.4091    1.2016 H   0  0  0  0  0  0  0  0  0  0  0  0
   -3.5082   -1.5822    1.3277 H   0  0  0  0  0  0  0  0  0  0  0  0
    3.6620   -3.2771    2.5549 H   0  0  0  0  0  0  0  0  0  0  0  0
   -5.5991   -4.7025    1.2036 H   0  0  0  0  0  0  0  0  0  0  0  0
    3.5867   -4.5601    0.6500 H   0  0  0  0  0  0  0  0  0  0  0  0
   -4.1302    6.0151   -0.0546 H   0  0  0  0  0  0  0  0  0  0  0  0
   -3.4317    4.8142    1.0117 H   0  0  0  0  0  0  0  0  0  0  0  0
   -6.2890   -3.2663   -0.8248 H   0  0  0  0  0  0  0  0  0  0  0  0
   -2.0960    6.5151   -1.0498 H   0  0  0  0  0  0  0  0  0  0  0  0
    3.6855   -1.1089   -0.9119 H   0  0  0  0  0  0  0  0  0  0  0  0
    2.2570    2.4417    0.6256 H   0  0  0  0  0  0  0  0  0  0  0  0
   -0.7537   -0.9680   -3.8298 H   0  0  0  0  0  0  0  0  0  0  0  0
   -0.0382   -2.5574   -3.5182 H   0  0  0  0  0  0  0  0  0  0  0  0
   -1.7108   -2.2672   -3.1526 H   0  0  0  0  0  0  0  0  0  0  0  0
    1.3347   -2.3279    2.9393 H   0  0  0  0  0  0  0  0  0  0  0  0
    2.5265   -2.0231    4.2100 H   0  0  0  0  0  0  0  0  0  0  0  0
    1.1582   -0.9729    4.0309 H   0  0  0  0  0  0  0  0  0  0  0  0
   -3.2953   -5.7922    1.8963 H   0  0  0  0  0  0  0  0  0  0  0  0
   -2.7029   -5.2309    0.3390 H   0  0  0  0  0  0  0  0  0  0  0  0
   -1.8393   -4.8074    1.8003 H   0  0  0  0  0  0  0  0  0  0  0  0
    6.2679   -2.8163    1.1509 H   0  0  0  0  0  0  0  0  0  0  0  0
    5.9623   -2.9674    2.8725 H   0  0  0  0  0  0  0  0  0  0  0  0
    5.6972   -4.3431    1.8107 H   0  0  0  0  0  0  0  0  0  0  0  0
    2.2223   -4.4387   -2.0280 H   0  0  0  0  0  0  0  0  0  0  0  0
    3.6035   -5.3947   -1.5018 H   0  0  0  0  0  0  0  0  0  0  0  0
    3.7520   -4.4225   -2.9146 H   0  0  0  0  0  0  0  0  0  0  0  0
    5.0413   -1.5574   -2.9744 H   0  0  0  0  0  0  0  0  0  0  0  0
    3.8918   -0.2653   -3.0051 H   0  0  0  0  0  0  0  0  0  0  0  0
   -5.2702   -4.4849   -2.5569 H   0  0  0  0  0  0  0  0  0  0  0  0
   -5.5229   -5.6008   -1.2109 H   0  0  0  0  0  0  0  0  0  0  0  0
   -3.9085   -4.9824   -1.5799 H   0  0  0  0  0  0  0  0  0  0  0  0
   -0.2996    6.6724    0.6134 H   0  0  0  0  0  0  0  0  0  0  0  0
   -1.0811    5.4414    1.6176 H   0  0  0  0  0  0  0  0  0  0  0  0
   -1.8593    7.0141    1.3744 H   0  0  0  0  0  0  0  0  0  0  0  0
   -2.6142    3.4980   -3.1555 H   0  0  0  0  0  0  0  0  0  0  0  0
    5.4785   -4.1844   -0.8250 H   0  0  0  0  0  0  0  0  0  0  0  0
   -5.6077   -1.8866    1.2824 H   0  0  0  0  0  0  0  0  0  0  0  0
    1.7804   -3.8443    1.4668 H   0  0  0  0  0  0  0  0  0  0  0  0
   -6.5077    4.1450   -2.0536 H   0  0  0  0  0  0  0  0  0  0  0  0
   -6.6177    5.0651   -0.5383 H   0  0  0  0  0  0  0  0  0  0  0  0
   -7.3945    3.4852   -0.7065 H   0  0  0  0  0  0  0  0  0  0  0  0
   -5.5159    3.8313    1.6146 H   0  0  0  0  0  0  0  0  0  0  0  0
   -4.5508    2.4183    1.2740 H   0  0  0  0  0  0  0  0  0  0  0  0
   -6.2678    2.3314    1.0745 H   0  0  0  0  0  0  0  0  0  0  0  0
    2.3275   -1.6496   -4.4055 H   0  0  0  0  0  0  0  0  0  0  0  0
    3.8869   -1.2974   -5.1463 H   0  0  0  0  0  0  0  0  0  0  0  0
    3.5790   -2.8931   -4.5149 H   0  0  0  0  0  0  0  0  0  0  0  0
   -4.1377   -3.4044    4.9190 H   0  0  0  0  0  0  0  0  0  0  0  0
   -4.0019   -4.9784    4.1288 H   0  0  0  0  0  0  0  0  0  0  0  0
   -5.4291   -3.9412    3.8492 H   0  0  0  0  0  0  0  0  0  0  0  0
    6.4934    1.7454    1.4621 H   0  0  0  0  0  0  0  0  0  0  0  0
    6.4268    0.6999    0.0171 H   0  0  0  0  0  0  0  0  0  0  0  0
    6.1648    2.7467   -1.6331 H   0  0  0  0  0  0  0  0  0  0  0  0
    6.6375    3.6282   -0.1634 H   0  0  0  0  0  0  0  0  0  0  0  0
    4.0853    4.0748   -1.7800 H   0  0  0  0  0  0  0  0  0  0  0  0
    4.4314    4.8225   -0.2045 H   0  0  0  0  0  0  0  0  0  0  0  0
    5.8401    7.2916   -2.5394 H   0  0  0  0  0  0  0  0  0  0  0  0
    4.2398    6.5602   -2.7225 H   0  0  0  0  0  0  0  0  0  0  0  0
    4.7801    7.1706   -1.1332 H   0  0  0  0  0  0  0  0  0  0  0  0
 18  1  1  0  0  0  0
 25  1  1  0  0  0  0
 21  2  1  0  0  0  0
 27  2  1  0  0  0  0
 20  3  1  0  0  0  0
  3 86  1  0  0  0  0
  4 25  1  0  0  0  0
  4 40  1  0  0  0  0
  5 27  1  0  0  0  0
  5 39  1  0  0  0  0
  6 41  1  0  0  0  0
  6 42  1  0  0  0  0
 28  7  1  0  0  0  0
  7 54  1  0  0  0  0
 29  8  1  0  0  0  0
  8110  1  0  0  0  0
 34  9  1  0  0  0  0
  9111  1  0  0  0  0
 35 10  1  0  0  0  0
 10112  1  0  0  0  0
 37 11  1  0  0  0  0
 11113  1  0  0  0  0
 12 42  2  0  0  0  0
 13 17  1  0  0  0  0
 13 55  1  0  0  0  0
 14 55  1  0  0  0  0
 14 56  1  0  0  0  0
 15 57  1  0  0  0  0
 15 58  1  0  0  0  0
 31 16  1  0  0  0  0
 16 51  1  0  0  0  0
 16 52  1  0  0  0  0
 17 36  2  0  0  0  0
 18 19  1  0  0  0  0
 18 20  1  0  0  0  0
 18 59  1  0  0  0  0
 19 21  1  0  0  0  0
 19 26  1  0  0  0  0
 19 60  1  0  0  0  0
 20 22  1  0  0  0  0
 20 30  1  0  0  0  0
 21 23  1  0  0  0  0
 21 61  1  0  0  0  0
 22 24  1  0  0  0  0
 22 62  1  0  0  0  0
 22 63  1  0  0  0  0
 23 42  1  0  0  0  0
 23 43  1  0  0  0  0
 23 64  1  0  0  0  0
 24 36  1  0  0  0  0
 24 44  1  0  0  0  0
 24 65  1  0  0  0  0
 25 29  1  0  0  0  0
 25 66  1  0  0  0  0
 26 68  1  0  0  0  0
 26 69  1  0  0  0  0
 26 70  1  0  0  0  0
 27 32  1  0  0  0  0
 27 67  1  0  0  0  0
 28 32  1  0  0  0  0
 28 35  1  0  0  0  0
 28 45  1  0  0  0  0
 29 31  1  0  0  0  0
 29 71  1  0  0  0  0
 30 72  1  0  0  0  0
 30 73  1  0  0  0  0
 30 74  1  0  0  0  0
 31 38  1  0  0  0  0
 31 75  1  0  0  0  0
 32 76  1  0  0  0  0
 32 77  1  0  0  0  0
 33 36  1  0  0  0  0
 33 37  1  0  0  0  0
 33 46  1  0  0  0  0
 33 78  1  0  0  0  0
 34 37  1  0  0  0  0
 34 41  1  0  0  0  0
 34 47  1  0  0  0  0
 35 39  1  0  0  0  0
 35 79  1  0  0  0  0
 37 80  1  0  0  0  0
 38 40  1  0  0  0  0
 38 81  1  0  0  0  0
 38 82  1  0  0  0  0
 39 49  1  0  0  0  0
 39 83  1  0  0  0  0
 40 50  1  0  0  0  0
 40 84  1  0  0  0  0
 41 48  1  0  0  0  0
 41 85  1  0  0  0  0
 43 87  1  0  0  0  0
 43 88  1  0  0  0  0
 43 89  1  0  0  0  0
 44 90  1  0  0  0  0
 44 91  1  0  0  0  0
 44 92  1  0  0  0  0
 45 93  1  0  0  0  0
 45 94  1  0  0  0  0
 45 95  1  0  0  0  0
 46 96  1  0  0  0  0
 46 97  1  0  0  0  0
 46 98  1  0  0  0  0
 47 99  1  0  0  0  0
 47100  1  0  0  0  0
 47101  1  0  0  0  0
 48 53  1  0  0  0  0
 48102  1  0  0  0  0
 48103  1  0  0  0  0
 49104  1  0  0  0  0
 49105  1  0  0  0  0
 49106  1  0  0  0  0
 50107  1  0  0  0  0
 50108  1  0  0  0  0
 50109  1  0  0  0  0
 51114  1  0  0  0  0
 51115  1  0  0  0  0
 51116  1  0  0  0  0
 52117  1  0  0  0  0
 52118  1  0  0  0  0
 52119  1  0  0  0  0
 53120  1  0  0  0  0
 53121  1  0  0  0  0
 53122  1  0  0  0  0
 54123  1  0  0  0  0
 54124  1  0  0  0  0
 54125  1  0  0  0  0
 55126  1  0  0  0  0
 55127  1  0  0  0  0
 56 57  1  0  0  0  0
 56128  1  0  0  0  0
 56129  1  0  0  0  0
 57130  1  0  0  0  0
 57131  1  0  0  0  0
 58132  1  0  0  0  0
 58133  1  0  0  0  0
 58134  1  0  0  0  0
M  END
> <PUBCHEM_COMPOUND_CID>
6915744

> <PUBCHEM_COMPOUND_CANONICALIZED>
1

> <PUBCHEM_CACTVS_COMPLEXITY>
1310

> <PUBCHEM_CACTVS_HBOND_ACCEPTOR>
17

> <PUBCHEM_CACTVS_HBOND_DONOR>
5

> <PUBCHEM_CACTVS_ROTATABLE_BOND>
13

> <PUBCHEM_CACTVS_SUBSKEYS>
AAADcfB/PAAAAAAAAAAAAAAAAAAAAAAAAAAkSAAAAAAAAAAAAAAAHgAECAAADXzxgAcCCAMQBgAoAQCwCAAAAAAAAAAAAAE4AAATEBYAgAAmQAAHIAAXAAHI7PzOAAAAAAAAAAAAAAAAAAAAAAAAAAAAAA==

> <PUBCHEM_IUPAC_OPENEYE_NAME>
(3R,4S,5S,6R,7R,9R,10E,11S,12R,13S,14R)-6-[(2S,3R,4S,6R)-4-(dimethylamino)-3-hydroxy-6-methyl-tetrahydropyran-2-yl]oxy-14-ethyl-7,12,13-trihydroxy-4-[(2R,4R,5S,6S)-5-hydroxy-4-methoxy-4,6-dimethyl-tetrahydropyran-2-yl]oxy-10-(2-methoxyethoxymethoxyimino)-3,5,7,9,11,13-hexamethyl-oxacyclotetradecan-2-one

> <PUBCHEM_IUPAC_CAS_NAME>
(3R,4S,5S,6R,7R,9R,10E,11S,12R,13S,14R)-6-[[(2S,3R,4S,6R)-4-(dimethylamino)-3-hydroxy-6-methyl-2-oxanyl]oxy]-14-ethyl-7,12,13-trihydroxy-4-[[(2R,4R,5S,6S)-5-hydroxy-4-methoxy-4,6-dimethyl-2-oxanyl]oxy]-10-(2-methoxyethoxymethoxyimino)-3,5,7,9,11,13-hexamethyl-oxacyclotetradecan-2-one

> <PUBCHEM_IUPAC_NAME_MARKUP>
(3<I>R</I>,4<I>S</I>,5<I>S</I>,6<I>R</I>,7<I>R</I>,9<I>R</I>,10<I>E</I>,11<I>S</I>,12<I>R</I>,13<I>S</I>,14<I>R</I>)-6-[(2<I>S</I>,3<I>R</I>,4<I>S</I>,6<I>R</I>)-4-(dimethylamino)-3-hydroxy-6-methyloxan-2-yl]oxy-14-ethyl-7,12,13-trihydroxy-4-[(2<I>R</I>,4<I>R</I>,5<I>S</I>,6<I>S</I>)-5-hydroxy-4-methoxy-4,6-dimethyloxan-2-yl]oxy-10-(2-methoxyethoxymethoxyimino)-3,5,7,9,11,13-hexamethyl-oxacyclotetradecan-2-one

> <PUBCHEM_IUPAC_NAME>
(3R,4S,5S,6R,7R,9R,10E,11S,12R,13S,14R)-6-[(2S,3R,4S,6R)-4-(dimethylamino)-3-hydroxy-6-methyloxan-2-yl]oxy-14-ethyl-7,12,13-trihydroxy-4-[(2R,4R,5S,6S)-5-hydroxy-4-methoxy-4,6-dimethyloxan-2-yl]oxy-10-(2-methoxyethoxymethoxyimino)-3,5,7,9,11,13-hexamethyl-oxacyclotetradecan-2-one

> <PUBCHEM_IUPAC_SYSTEMATIC_NAME>
(3R,4S,5S,6R,7R,9R,10E,11S,12R,13S,14R)-6-[(2S,3R,4S,6R)-4-(dimethylamino)-6-methyl-3-oxidanyl-oxan-2-yl]oxy-14-ethyl-4-[(2R,4R,5S,6S)-4-methoxy-4,6-dimethyl-5-oxidanyl-oxan-2-yl]oxy-10-(2-methoxyethoxymethoxyimino)-3,5,7,9,11,13-hexamethyl-7,12,13-tris(oxidanyl)-1-oxacyclotetradecan-2-one

> <PUBCHEM_IUPAC_TRADITIONAL_NAME>
(3R,4S,5S,6R,7R,9R,10E,11S,12R,13S,14R)-6-[(2S,3R,4S,6R)-4-(dimethylamino)-3-hydroxy-6-methyl-tetrahydropyran-2-yl]oxy-14-ethyl-7,12,13-trihydroxy-4-[(2R,4R,5S,6S)-5-hydroxy-4-methoxy-4,6-dimethyl-tetrahydropyran-2-yl]oxy-10-(2-methoxyethoxymethyloximino)-3,5,7,9,11,13-hexamethyl-oxacyclotetradecan-2-one

> <PUBCHEM_IUPAC_INCHI>
InChI=1S/C41H76N2O15/c1-15-29-41(10,49)34(45)24(4)31(42-53-21-52-17-16-50-13)22(2)19-39(8,48)36(58-38-32(44)28(43(11)12)18-23(3)54-38)25(5)33(26(6)37(47)56-29)57-30-20-40(9,51-14)35(46)27(7)55-30/h22-30,32-36,38,44-46,48-49H,15-21H2,1-14H3/b42-31+/t22-,23-,24+,25+,26-,27+,28+,29-,30+,32-,33+,34-,35+,36-,38+,39-,40-,41-/m1/s1

> <PUBCHEM_IUPAC_INCHIKEY>
RXZBMPWDPOLZGW-XMRMVWPWSA-N

> <PUBCHEM_XLOGP3>
3.1

> <PUBCHEM_EXACT_MASS>
836.52456972

> <PUBCHEM_MOLECULAR_FORMULA>
C41H76N2O15

> <PUBCHEM_MOLECULAR_WEIGHT>
837.0

> <PUBCHEM_OPENEYE_CAN_SMILES>
CCC1C(C(C(C(=NOCOCCOC)C(CC(C(C(C(C(C(=O)O1)C)OC2CC(C(C(O2)C)O)(C)OC)C)OC3C(C(CC(O3)C)N(C)C)O)(C)O)C)C)O)(C)O

> <PUBCHEM_OPENEYE_ISO_SMILES>
CC[C@@H]1[C@@]([C@@H]([C@H](/C(=N/OCOCCOC)/[C@@H](C[C@@]([C@@H]([C@H]([C@@H]([C@H](C(=O)O1)C)O[C@H]2C[C@@]([C@H]([C@@H](O2)C)O)(C)OC)C)O[C@H]3[C@@H]([C@H](C[C@H](O3)C)N(C)C)O)(C)O)C)C)O)(C)O

> <PUBCHEM_CACTVS_TPSA>
217

> <PUBCHEM_MONOISOTOPIC_WEIGHT>
836.52456972

> <PUBCHEM_TOTAL_CHARGE>
0

> <PUBCHEM_HEAVY_ATOM_COUNT>
58

> <PUBCHEM_ATOM_DEF_STEREO_COUNT>
18

> <PUBCHEM_ATOM_UDEF_STEREO_COUNT>
0

> <PUBCHEM_BOND_DEF_STEREO_COUNT>
1

> <PUBCHEM_BOND_UDEF_STEREO_COUNT>
0

> <PUBCHEM_ISOTOPIC_ATOM_COUNT>
0

> <PUBCHEM_COMPONENT_COUNT>
1

> <PUBCHEM_CACTVS_TAUTO_COUNT>
-1

> <PUBCHEM_COORDINATE_TYPE>
1
5
255

> <PUBCHEM_BONDANNOTATIONS>
18  1  5
25  1  5
35  10  6
37  11  6
31  16  5
19  27  5
21  2  5
26  2  6
23  43  6
24  44  6
20  3  6
33  46  6
39  49  5
40  50  5
41  48  5
28  7  6
29  8  6
34  9  6

$$$$
