5289394
  -OEChem-07162413072D

133136  0  0  1  0            999 V2000
    0.3574    1.6814   -3.4033 O   0  0  0  0  0  0  0  0  0  0  0  0
   -0.4328    3.2355   -1.7418 O   0  0  0  0  0  0  0  0  0  0  0  0
    1.0720   -1.9878   -3.3167 O   0  0  0  0  0  0  0  0  0  0  0  0
    1.9436   -4.1477   -2.8845 O   0  0  0  0  0  0  0  0  0  0  0  0
   -2.0264    0.9937   -0.7514 O   0  0  0  0  0  0  0  0  0  0  0  0
   -1.2467    5.8356   -1.5669 O   0  0  0  0  0  0  0  0  0  0  0  0
   -1.7271   -6.0161   -3.5709 O   0  0  0  0  0  0  0  0  0  0  0  0
    1.3725   -0.1643    2.6201 O   0  0  0  0  0  0  0  0  0  0  0  0
    0.7922   -6.7551   -4.0935 O   0  0  0  0  0  0  0  0  0  0  0  0
    2.3149   -2.2448    3.0978 O   0  0  0  0  0  0  0  0  0  0  0  0
   -3.1669    3.9722   -2.5071 O   0  0  0  0  0  0  0  0  0  0  0  0
    1.1801    6.9761    2.6296 O   0  0  0  0  0  0  0  0  0  0  0  0
   -5.1401    4.4331    1.2037 O   0  0  0  0  0  0  0  0  0  0  0  0
   -6.6462    4.6604   -0.3263 O   0  0  0  0  0  0  0  0  0  0  0  0
   -1.6096   -1.6736   -1.4982 N   0  0  0  0  0  0  0  0  0  0  0  0
    5.1053   -4.5560    1.5420 N   0  0  0  0  0  0  0  0  0  0  0  0
   -0.6153   -0.6270   -1.9272 C   0  0  1  0  0  0  0  0  0  0  0  0
    0.1295   -0.8773   -3.2880 C   0  0  1  0  0  0  0  0  0  0  0  0
   -1.2300    0.8083   -1.9018 C   0  0  2  0  0  0  0  0  0  0  0  0
   -0.0988    1.8542   -2.0406 C   0  0  1  0  0  0  0  0  0  0  0  0
    0.9345    0.3930   -3.7625 C   0  0  1  0  0  0  0  0  0  0  0  0
   -0.7079    3.7795   -0.4087 C   0  0  1  0  0  0  0  0  0  0  0  0
    0.5567    4.2685    0.4187 C   0  0  2  0  0  0  0  0  0  0  0  0
    0.7832   -3.2938   -2.7721 C   0  0  2  0  0  0  0  0  0  0  0  0
    1.7808    3.2825    0.5382 C   0  0  0  0  0  0  0  0  0  0  0  0
   -0.7175   -5.3907   -2.7708 C   0  0  2  0  0  0  0  0  0  0  0  0
   -1.8283    4.8657   -0.6654 C   0  0  2  0  0  0  0  0  0  0  0  0
   -0.4034   -4.0266   -3.4539 C   0  0  0  0  0  0  0  0  0  0  0  0
    1.9783    2.0830    1.5605 C   0  0  2  0  0  0  0  0  0  0  0  0
    0.5831   -6.2565   -2.7695 C   0  0  2  0  0  0  0  0  0  0  0  0
    1.8684   -5.4833   -2.3204 C   0  0  2  0  0  0  0  0  0  0  0  0
    0.2951    4.9577    1.8072 C   0  0  0  0  0  0  0  0  0  0  0  0
    1.1844    0.4107   -5.2930 C   0  0  0  0  0  0  0  0  0  0  0  0
   -3.2340    4.3517   -1.1325 C   0  0  1  0  0  0  0  0  0  0  0  0
    0.8806    0.9934    1.8831 C   0  0  2  0  0  0  0  0  0  0  0  0
   -1.3842   -5.2644   -1.3695 C   0  0  0  0  0  0  0  0  0  0  0  0
   -2.9493   -1.6709   -2.1516 C   0  0  0  0  0  0  0  0  0  0  0  0
   -1.6540   -1.9895   -0.0374 C   0  0  0  0  0  0  0  0  0  0  0  0
    2.8017    2.4713    2.8291 C   0  0  0  0  0  0  0  0  0  0  0  0
    2.0042   -1.3304    2.0281 C   0  0  2  0  0  0  0  0  0  0  0  0
    2.1769   -5.5046   -0.8006 C   0  0  0  0  0  0  0  0  0  0  0  0
    4.3559   -3.3436    2.0740 C   0  0  1  0  0  0  0  0  0  0  0  0
   -4.4736    5.2792   -0.8600 C   0  0  0  0  0  0  0  0  0  0  0  0
    3.3180   -1.0606    1.2703 C   0  0  0  0  0  0  0  0  0  0  0  0
    4.0596   -2.3570    0.8960 C   0  0  0  0  0  0  0  0  0  0  0  0
    2.9860   -3.5128    2.8440 C   0  0  1  0  0  0  0  0  0  0  0  0
    1.3522    5.8029    2.3332 C   0  0  0  0  0  0  0  0  0  0  0  0
   -0.1831    1.5380    2.7258 C   0  0  0  0  0  0  0  0  0  0  0  0
   -1.7254    7.1865   -1.6283 C   0  0  0  0  0  0  0  0  0  0  0  0
    3.0138   -4.0932    4.2862 C   0  0  0  0  0  0  0  0  0  0  0  0
   -5.4858    4.7670    0.0526 C   0  0  0  0  0  0  0  0  0  0  0  0
   -1.4968    1.5089    2.4511 C   0  0  0  0  0  0  0  0  0  0  0  0
    6.4148   -4.2960    0.8502 C   0  0  0  0  0  0  0  0  0  0  0  0
    5.2530   -5.7512    2.4247 C   0  0  0  0  0  0  0  0  0  0  0  0
   -5.7722    3.8504    2.2440 C   0  0  1  0  0  0  0  0  0  0  0  0
   -2.4668    2.2134    3.0939 C   0  0  0  0  0  0  0  0  0  0  0  0
   -4.7147    3.2495    3.2201 C   0  0  0  0  0  0  0  0  0  0  0  0
   -3.7132    2.3815    2.6166 C   0  0  0  0  0  0  0  0  0  0  0  0
   -6.7466    4.8075    2.9840 C   0  0  0  0  0  0  0  0  0  0  0  0
    0.2025   -0.6565   -1.1989 H   0  0  0  0  0  0  0  0  0  0  0  0
   -0.6385   -1.0800   -4.0374 H   0  0  0  0  0  0  0  0  0  0  0  0
   -1.9277    0.9300   -2.7364 H   0  0  0  0  0  0  0  0  0  0  0  0
    0.7181    1.5684   -1.3889 H   0  0  0  0  0  0  0  0  0  0  0  0
    1.9205    0.3776   -3.2866 H   0  0  0  0  0  0  0  0  0  0  0  0
   -1.1594    3.0293    0.2280 H   0  0  0  0  0  0  0  0  0  0  0  0
    0.9217    5.0800   -0.2215 H   0  0  0  0  0  0  0  0  0  0  0  0
    0.6128   -3.1435   -1.7077 H   0  0  0  0  0  0  0  0  0  0  0  0
    2.6520    3.9260    0.6868 H   0  0  0  0  0  0  0  0  0  0  0  0
    2.0226    2.9615   -0.4722 H   0  0  0  0  0  0  0  0  0  0  0  0
   -2.0580    5.3418    0.2837 H   0  0  0  0  0  0  0  0  0  0  0  0
   -0.1351   -4.1848   -4.5027 H   0  0  0  0  0  0  0  0  0  0  0  0
   -1.2983   -3.4139   -3.4780 H   0  0  0  0  0  0  0  0  0  0  0  0
    2.7190    1.5105    1.0127 H   0  0  0  0  0  0  0  0  0  0  0  0
    0.4374   -7.1494   -2.1550 H   0  0  0  0  0  0  0  0  0  0  0  0
    2.7213   -6.0116   -2.7572 H   0  0  0  0  0  0  0  0  0  0  0  0
    0.0795    4.2066    2.5604 H   0  0  0  0  0  0  0  0  0  0  0  0
   -0.5954    5.5783    1.7960 H   0  0  0  0  0  0  0  0  0  0  0  0
    0.2404    0.4456   -5.8413 H   0  0  0  0  0  0  0  0  0  0  0  0
    1.7305   -0.4796   -5.6118 H   0  0  0  0  0  0  0  0  0  0  0  0
    1.7722    1.2834   -5.5853 H   0  0  0  0  0  0  0  0  0  0  0  0
   -3.4257    3.4172   -0.6075 H   0  0  0  0  0  0  0  0  0  0  0  0
    0.4626    0.6413    0.9367 H   0  0  0  0  0  0  0  0  0  0  0  0
   -2.4899    1.8332   -0.9143 H   0  0  0  0  0  0  0  0  0  0  0  0
   -1.6351   -6.2443   -0.9599 H   0  0  0  0  0  0  0  0  0  0  0  0
   -0.7493   -4.7693   -0.6399 H   0  0  0  0  0  0  0  0  0  0  0  0
   -2.3132   -4.6979   -1.4325 H   0  0  0  0  0  0  0  0  0  0  0  0
   -3.4642   -2.6166   -1.9840 H   0  0  0  0  0  0  0  0  0  0  0  0
   -3.5854   -0.8738   -1.7656 H   0  0  0  0  0  0  0  0  0  0  0  0
   -2.8698   -1.5454   -3.2317 H   0  0  0  0  0  0  0  0  0  0  0  0
   -0.6798   -2.3392    0.2962 H   0  0  0  0  0  0  0  0  0  0  0  0
   -2.3579   -2.7849    0.2067 H   0  0  0  0  0  0  0  0  0  0  0  0
   -1.9249   -1.1315    0.5731 H   0  0  0  0  0  0  0  0  0  0  0  0
    3.7794    2.8754    2.5560 H   0  0  0  0  0  0  0  0  0  0  0  0
    2.2847    3.2159    3.4308 H   0  0  0  0  0  0  0  0  0  0  0  0
    2.9997    1.6175    3.4801 H   0  0  0  0  0  0  0  0  0  0  0  0
    1.2899   -1.8134    1.3630 H   0  0  0  0  0  0  0  0  0  0  0  0
    3.1993   -5.1666   -0.6290 H   0  0  0  0  0  0  0  0  0  0  0  0
    2.0972   -6.5141   -0.3928 H   0  0  0  0  0  0  0  0  0  0  0  0
    1.5189   -4.8549   -0.2274 H   0  0  0  0  0  0  0  0  0  0  0  0
    5.0317   -2.8349    2.7676 H   0  0  0  0  0  0  0  0  0  0  0  0
   -4.1655    6.2274   -0.4182 H   0  0  0  0  0  0  0  0  0  0  0  0
   -4.9329    5.5527   -1.8162 H   0  0  0  0  0  0  0  0  0  0  0  0
    3.9696   -0.4401    1.8925 H   0  0  0  0  0  0  0  0  0  0  0  0
    3.1011   -0.5446    0.3332 H   0  0  0  0  0  0  0  0  0  0  0  0
    3.4813   -2.8715    0.1244 H   0  0  0  0  0  0  0  0  0  0  0  0
    4.9732   -1.9924    0.4281 H   0  0  0  0  0  0  0  0  0  0  0  0
    2.3266   -4.1446    2.2407 H   0  0  0  0  0  0  0  0  0  0  0  0
   -1.9412   -6.8581   -3.1173 H   0  0  0  0  0  0  0  0  0  0  0  0
    2.2626    5.4432    2.4796 H   0  0  0  0  0  0  0  0  0  0  0  0
    1.5591   -7.3610   -4.0273 H   0  0  0  0  0  0  0  0  0  0  0  0
    0.1021    2.0100    3.5541 H   0  0  0  0  0  0  0  0  0  0  0  0
   -3.0263    4.8071   -3.0014 H   0  0  0  0  0  0  0  0  0  0  0  0
   -1.0811    7.7324   -2.3170 H   0  0  0  0  0  0  0  0  0  0  0  0
   -1.6701    7.6741   -0.6534 H   0  0  0  0  0  0  0  0  0  0  0  0
   -2.7404    7.2507   -2.0194 H   0  0  0  0  0  0  0  0  0  0  0  0
    3.5803   -3.4455    4.9573 H   0  0  0  0  0  0  0  0  0  0  0  0
    1.9958   -4.1759    4.6764 H   0  0  0  0  0  0  0  0  0  0  0  0
    3.4335   -5.0902    4.3742 H   0  0  0  0  0  0  0  0  0  0  0  0
   -1.7727    0.9708    1.6714 H   0  0  0  0  0  0  0  0  0  0  0  0
    6.3335   -3.6280   -0.0042 H   0  0  0  0  0  0  0  0  0  0  0  0
    7.1525   -3.8754    1.5374 H   0  0  0  0  0  0  0  0  0  0  0  0
    6.8403   -5.1976    0.4045 H   0  0  0  0  0  0  0  0  0  0  0  0
    5.7775   -5.5037    3.3515 H   0  0  0  0  0  0  0  0  0  0  0  0
    4.2842   -6.1908    2.6486 H   0  0  0  0  0  0  0  0  0  0  0  0
    5.7999   -6.5712    1.9520 H   0  0  0  0  0  0  0  0  0  0  0  0
   -6.3631    3.0087    1.8648 H   0  0  0  0  0  0  0  0  0  0  0  0
   -2.2270    2.6804    3.9397 H   0  0  0  0  0  0  0  0  0  0  0  0
   -5.2247    2.6608    3.9869 H   0  0  0  0  0  0  0  0  0  0  0  0
   -4.2183    4.0832    3.7273 H   0  0  0  0  0  0  0  0  0  0  0  0
   -3.9826    1.9027    1.7847 H   0  0  0  0  0  0  0  0  0  0  0  0
   -7.5030    5.2101    2.3087 H   0  0  0  0  0  0  0  0  0  0  0  0
   -6.2123    5.6486    3.4310 H   0  0  0  0  0  0  0  0  0  0  0  0
   -7.2700    4.2770    3.7829 H   0  0  0  0  0  0  0  0  0  0  0  0
  1 20  1  0  0  0  0
  1 21  1  0  0  0  0
 20  2  1  0  0  0  0
 22  2  1  0  0  0  0
 18  3  1  0  0  0  0
 24  3  1  0  0  0  0
  4 24  1  0  0  0  0
  4 31  1  0  0  0  0
 19  5  1  0  0  0  0
  5 83  1  0  0  0  0
 27  6  1  0  0  0  0
  6 49  1  0  0  0  0
 26  7  1  0  0  0  0
  7108  1  0  0  0  0
 35  8  1  0  0  0  0
 40  8  1  0  0  0  0
 30  9  1  0  0  0  0
  9110  1  0  0  0  0
 10 40  1  0  0  0  0
 10 46  1  0  0  0  0
 34 11  1  0  0  0  0
 11112  1  0  0  0  0
 12 47  2  0  0  0  0
 13 51  1  0  0  0  0
 13 55  1  0  0  0  0
 14 51  2  0  0  0  0
 17 15  1  0  0  0  0
 15 37  1  0  0  0  0
 15 38  1  0  0  0  0
 42 16  1  0  0  0  0
 16 53  1  0  0  0  0
 16 54  1  0  0  0  0
 17 18  1  0  0  0  0
 17 19  1  0  0  0  0
 17 60  1  0  0  0  0
 18 21  1  0  0  0  0
 18 61  1  0  0  0  0
 19 20  1  0  0  0  0
 19 62  1  0  0  0  0
 20 63  1  0  0  0  0
 21 33  1  0  0  0  0
 21 64  1  0  0  0  0
 22 23  1  0  0  0  0
 22 27  1  0  0  0  0
 22 65  1  0  0  0  0
 23 25  1  0  0  0  0
 23 32  1  0  0  0  0
 23 66  1  0  0  0  0
 24 28  1  0  0  0  0
 24 67  1  0  0  0  0
 25 29  1  0  0  0  0
 25 68  1  0  0  0  0
 25 69  1  0  0  0  0
 26 28  1  0  0  0  0
 26 30  1  0  0  0  0
 26 36  1  0  0  0  0
 27 34  1  0  0  0  0
 27 70  1  0  0  0  0
 28 71  1  0  0  0  0
 28 72  1  0  0  0  0
 29 35  1  0  0  0  0
 29 39  1  0  0  0  0
 29 73  1  0  0  0  0
 30 31  1  0  0  0  0
 30 74  1  0  0  0  0
 31 41  1  0  0  0  0
 31 75  1  0  0  0  0
 32 47  1  0  0  0  0
 32 76  1  0  0  0  0
 32 77  1  0  0  0  0
 33 78  1  0  0  0  0
 33 79  1  0  0  0  0
 33 80  1  0  0  0  0
 34 43  1  0  0  0  0
 34 81  1  0  0  0  0
 35 48  1  0  0  0  0
 35 82  1  0  0  0  0
 36 84  1  0  0  0  0
 36 85  1  0  0  0  0
 36 86  1  0  0  0  0
 37 87  1  0  0  0  0
 37 88  1  0  0  0  0
 37 89  1  0  0  0  0
 38 90  1  0  0  0  0
 38 91  1  0  0  0  0
 38 92  1  0  0  0  0
 39 93  1  0  0  0  0
 39 94  1  0  0  0  0
 39 95  1  0  0  0  0
 40 44  1  0  0  0  0
 40 96  1  0  0  0  0
 41 97  1  0  0  0  0
 41 98  1  0  0  0  0
 41 99  1  0  0  0  0
 42 45  1  0  0  0  0
 42 46  1  0  0  0  0
 42100  1  0  0  0  0
 43 51  1  0  0  0  0
 43101  1  0  0  0  0
 43102  1  0  0  0  0
 44 45  1  0  0  0  0
 44103  1  0  0  0  0
 44104  1  0  0  0  0
 45105  1  0  0  0  0
 45106  1  0  0  0  0
 46 50  1  0  0  0  0
 46107  1  0  0  0  0
 47109  1  0  0  0  0
 48 52  2  0  0  0  0
 48111  1  0  0  0  0
 49113  1  0  0  0  0
 49114  1  0  0  0  0
 49115  1  0  0  0  0
 50116  1  0  0  0  0
 50117  1  0  0  0  0
 50118  1  0  0  0  0
 52 56  1  0  0  0  0
 52119  1  0  0  0  0
 53120  1  0  0  0  0
 53121  1  0  0  0  0
 53122  1  0  0  0  0
 54123  1  0  0  0  0
 54124  1  0  0  0  0
 54125  1  0  0  0  0
 55 57  1  0  0  0  0
 55 59  1  0  0  0  0
 55126  1  0  0  0  0
 56 58  2  0  0  0  0
 56127  1  0  0  0  0
 57 58  1  0  0  0  0
 57128  1  0  0  0  0
 57129  1  0  0  0  0
 58130  1  0  0  0  0
 59131  1  0  0  0  0
 59132  1  0  0  0  0
 59133  1  0  0  0  0
M  END
> <PUBCHEM_COMPOUND_CID>
5289394

> <PUBCHEM_COMPOUND_CANONICALIZED>
1

> <PUBCHEM_CACTVS_COMPLEXITY>
1370

> <PUBCHEM_CACTVS_HBOND_ACCEPTOR>
16

> <PUBCHEM_CACTVS_HBOND_DONOR>
4

> <PUBCHEM_CACTVS_ROTATABLE_BOND>
11

> <PUBCHEM_CACTVS_SUBSKEYS>
AAADcfB/PAAAAAAAAAAAAAAAAAAAAAAAAAAkSJAAAAAAAAAAAAAAHgAACAAADXzxgAcCCAMABgCIACjSiAAAAAAgAAAICAEIAAgbFBYAoQAnUAAH4AAfoAPq7PzOAAAAAAAAAAAAAAAAAAAAAAAAAAAAAA==

> <PUBCHEM_IUPAC_OPENEYE_NAME>
2-[(4R,5S,6S,7R,9R,10R,11E,13E,16R)-6-[(2S,3R,4R,5S,6R)-5-[(2S,4R,5S,6S)-4,5-dihydroxy-4,6-dimethyl-tetrahydropyran-2-yl]oxy-4-(dimethylamino)-3-hydroxy-6-methyl-tetrahydropyran-2-yl]oxy-10-[(2R,5S,6R)-5-(dimethylamino)-6-methyl-tetrahydropyran-2-yl]oxy-4-hydroxy-5-methoxy-9,16-dimethyl-2-oxo-1-oxacyclohexadeca-11,13-dien-7-yl]acetaldehyde

> <PUBCHEM_IUPAC_CAS_NAME>
2-[(4R,5S,6S,7R,9R,10R,11E,13E,16R)-6-[[(2S,3R,4R,5S,6R)-5-[[(2S,4R,5S,6S)-4,5-dihydroxy-4,6-dimethyl-2-oxanyl]oxy]-4-(dimethylamino)-3-hydroxy-6-methyl-2-oxanyl]oxy]-10-[[(2R,5S,6R)-5-(dimethylamino)-6-methyl-2-oxanyl]oxy]-4-hydroxy-5-methoxy-9,16-dimethyl-2-oxo-1-oxacyclohexadeca-11,13-dien-7-yl]acetaldehyde

> <PUBCHEM_IUPAC_NAME_MARKUP>
2-[(4<I>R</I>,5<I>S</I>,6<I>S</I>,7<I>R</I>,9<I>R</I>,10<I>R</I>,11<I>E</I>,13<I>E</I>,16<I>R</I>)-6-[(2<I>S</I>,3<I>R</I>,4<I>R</I>,5<I>S</I>,6<I>R</I>)-5-[(2<I>S</I>,4<I>R</I>,5<I>S</I>,6<I>S</I>)-4,5-dihydroxy-4,6-dimethyloxan-2-yl]oxy-4-(dimethylamino)-3-hydroxy-6-methyloxan-2-yl]oxy-10-[(2<I>R</I>,5<I>S</I>,6<I>R</I>)-5-(dimethylamino)-6-methyloxan-2-yl]oxy-4-hydroxy-5-methoxy-9,16-dimethyl-2-oxo-1-oxacyclohexadeca-11,13-dien-7-yl]acetaldehyde

> <PUBCHEM_IUPAC_NAME>
2-[(4R,5S,6S,7R,9R,10R,11E,13E,16R)-6-[(2S,3R,4R,5S,6R)-5-[(2S,4R,5S,6S)-4,5-dihydroxy-4,6-dimethyloxan-2-yl]oxy-4-(dimethylamino)-3-hydroxy-6-methyloxan-2-yl]oxy-10-[(2R,5S,6R)-5-(dimethylamino)-6-methyloxan-2-yl]oxy-4-hydroxy-5-methoxy-9,16-dimethyl-2-oxo-1-oxacyclohexadeca-11,13-dien-7-yl]acetaldehyde

> <PUBCHEM_IUPAC_SYSTEMATIC_NAME>
2-[(4R,5S,6S,7R,9R,10R,11E,13E,16R)-6-[(2S,3R,4R,5S,6R)-4-(dimethylamino)-5-[(2S,4R,5S,6S)-4,6-dimethyl-4,5-bis(oxidanyl)oxan-2-yl]oxy-6-methyl-3-oxidanyl-oxan-2-yl]oxy-10-[(2R,5S,6R)-5-(dimethylamino)-6-methyl-oxan-2-yl]oxy-5-methoxy-9,16-dimethyl-4-oxidanyl-2-oxidanylidene-1-oxacyclohexadeca-11,13-dien-7-yl]ethanal

> <PUBCHEM_IUPAC_TRADITIONAL_NAME>
2-[(4R,5S,6S,7R,9R,10R,11E,13E,16R)-6-[(2S,3R,4R,5S,6R)-5-[(2S,4R,5S,6S)-4,5-dihydroxy-4,6-dimethyl-tetrahydropyran-2-yl]oxy-4-(dimethylamino)-3-hydroxy-6-methyl-tetrahydropyran-2-yl]oxy-10-[(2R,5S,6R)-5-(dimethylamino)-6-methyl-tetrahydropyran-2-yl]oxy-4-hydroxy-2-keto-5-methoxy-9,16-dimethyl-1-oxacyclohexadeca-11,13-dien-7-yl]acetaldehyde

> <PUBCHEM_IUPAC_INCHI>
InChI=1S/C43H74N2O14/c1-24-21-29(19-20-46)39(59-42-37(49)36(45(9)10)38(27(4)56-42)58-35-23-43(6,51)41(50)28(5)55-35)40(52-11)31(47)22-33(48)53-25(2)15-13-12-14-16-32(24)57-34-18-17-30(44(7)8)26(3)54-34/h12-14,16,20,24-32,34-42,47,49-51H,15,17-19,21-23H2,1-11H3/b13-12+,16-14+/t24-,25-,26-,27-,28+,29+,30+,31-,32+,34+,35+,36-,37-,38-,39+,40+,41+,42+,43-/m1/s1

> <PUBCHEM_IUPAC_INCHIKEY>
ACTOXUHEUCPTEW-CEUOBAOPSA-N

> <PUBCHEM_XLOGP3_AA>
2.1

> <PUBCHEM_EXACT_MASS>
842.51400504

> <PUBCHEM_MOLECULAR_FORMULA>
C43H74N2O14

> <PUBCHEM_MOLECULAR_WEIGHT>
843.1

> <PUBCHEM_OPENEYE_CAN_SMILES>
CC1CC=CC=CC(C(CC(C(C(C(CC(=O)O1)O)OC)OC2C(C(C(C(O2)C)OC3CC(C(C(O3)C)O)(C)O)N(C)C)O)CC=O)C)OC4CCC(C(O4)C)N(C)C

> <PUBCHEM_OPENEYE_ISO_SMILES>
C[C@@H]1C/C=C/C=C/[C@@H]([C@@H](C[C@@H]([C@@H]([C@H]([C@@H](CC(=O)O1)O)OC)O[C@H]2[C@@H]([C@H]([C@@H]([C@H](O2)C)O[C@H]3C[C@@]([C@H]([C@@H](O3)C)O)(C)O)N(C)C)O)CC=O)C)O[C@H]4CC[C@@H]([C@H](O4)C)N(C)C

> <PUBCHEM_CACTVS_TPSA>
195

> <PUBCHEM_MONOISOTOPIC_WEIGHT>
842.51400504

> <PUBCHEM_TOTAL_CHARGE>
0

> <PUBCHEM_HEAVY_ATOM_COUNT>
59

> <PUBCHEM_ATOM_DEF_STEREO_COUNT>
19

> <PUBCHEM_ATOM_UDEF_STEREO_COUNT>
0

> <PUBCHEM_BOND_DEF_STEREO_COUNT>
2

> <PUBCHEM_BOND_UDEF_STEREO_COUNT>
0

> <PUBCHEM_ISOTOPIC_ATOM_COUNT>
0

> <PUBCHEM_COMPONENT_COUNT>
1

> <PUBCHEM_CACTVS_TAUTO_COUNT>
-1

> <PUBCHEM_COORDINATE_TYPE>
1
5
255

> <PUBCHEM_BONDANNOTATIONS>
34  11  6
17  15  5
42  16  6
20  2  5
22  2  5
21  33  5
23  32  5
29  39  5
18  3  6
24  3  5
31  41  6
46  50  5
19  5  6
55  59  5
27  6  6
35  7  5
40  7  5
26  8  5
30  9  5

$$$$
