"Name",                   "Formula",         "Mass", "log P", "HB Donors", "HB Acceptors", "Rotatable Bonds", "Polar Surface", "Heavy Atom", "Complexity", "Density", "Boiling", "Melting",  "SMILES","InChl"
"Propane",                C₃H₈,             44.10,   1.8,     0,           0,              0,                 0,                3,           0,            0.564,     -42.1,       -188,"CCC","InChI=1S/C3H8/c1-3-2/h3H2,1-2H3"